<?xml version="1.0" encoding="utf-8"?>
<VTKFile type="UnstructuredGrid" version="0.1" byte_order="LittleEndian">
	<UnstructuredGrid>
		<Piece NumberOfPoints="1634" NumberOfCells="2404">
			<PointData/>
			<CellData Scalars="MaterialIDs">
				<DataArray type="Int32" Name="MaterialIDs" format="ascii">
				  0 0 0 0 0 0 0 0 0 0 0 0 0 0 0 0 0 0 0 0 0 0 0 0 0 0 0 0 0 0 0 0 0 0 0 0 0 0 0 0 0 0 0 0 0 0 0 0 0 0 0 0 0 0 0 0 0 0 0 0 0 0 0 0 0 0 0 0 0 0 0 0 0 0 0 0 0 0 0 0 0 0 0 0 0 0 0 0 0 0 0 0 0 0 0 0 0 0 0 0 0 0 0 0 0 0 0 0 0 0 0 0 0 0 0 0 0 0 0 0 0 0 0 0 0 0 0 0 0 0 0 0 0 0 0 0 0 0 0 0 0 0 0 0 0 0 0 0 0 0 0 0 0 0 0 0 0 0 0 0 0 0 0 0 0 0 0 0 0 0 0 0 0 0 0 0 0 0 0 0 0 0 0 0 0 0 0 0 0 0 0 0 0 0 0 0 0 0 0 0 0 0 0 0 0 0 0 0 0 0 0 0 0 0 0 0 0 0 0 0 0 0 0 0 0 0 0 0 0 0 0 0 0 0 0 0 0 0 0 0 0 0 0 0 0 0 0 0 0 0 0 0 0 0 0 0 0 0 0 0 0 0 0 0 0 0 0 0 0 0 0 0 0 0 0 0 0 0 0 0 0 0 0 0 0 0 0 0 0 0 0 0 0 0 0 0 0 0 0 0 0 0 0 0 0 0 0 0 0 0 0 0 0 0 0 0 0 0 0 0 0 0 0 0 0 0 0 0 0 0 0 0 0 0 0 0 0 0 0 0 0 0 0 0 0 0 0 0 0 0 0 0 0 0 0 0 0 0 0 0 0 0 0 0 0 0 0 0 0 0 0 0 0 0 0 0 0 0 0 0 0 0 0 0 0 0 0 0 0 0 0 0 0 0 0 0 0 0 0 0 0 0 0 0 0 0 0 0 0 0 0 0 0 0 0 0 0 0 0 0 0 0 0 0 0 0 0 0 0 0 0 0 0 0 0 0 0 0 0 0 0 0 0 0 0 0 0 0 0 0 0 0 0 0 0 0 0 0 0 0 0 0 0 0 0 0 0 0 0 0 0 0 0 0 0 0 0 0 0 0 0 0 0 0 0 0 0 0 0 0 0 0 0 0 0 0 0 0 0 0 0 0 0 0 0 0 0 0 0 0 0 0 0 0 0 0 0 0 0 0 0 0 0 0 0 0 0 0 0 0 0 0 0 0 0 0 0 0 0 0 0 0 0 0 0 0 0 0 0 0 0 0 0 0 0 0 0 0 0 0 0 0 0 0 0 0 0 0 0 0 0 0 0 0 0 0 0 0 0 0 0 0 0 0 0 0 0 0 0 0 0 0 0 0 0 0 0 0 0 0 0 0 0 0 0 0 0 0 0 0 0 0 0 0 0 0 0 0 0 0 0 0 0 0 0 0 0 0 0 0 0 0 0 0 0 0 0 0 0 0 0 0 0 0 0 0 0 0 0 0 0 0 0 0 0 0 0 0 0 0 0 0 0 0 0 0 0 0 0 0 0 0 0 0 0 0 0 0 0 0 0 0 0 0 0 0 0 0 0 0 0 0 0 0 0 0 0 0 0 0 0 0 0 0 0 0 0 0 0 0 0 0 0 0 0 0 0 0 0 0 0 0 0 0 0 0 0 0 0 0 0 0 0 0 0 0 0 0 0 0 0 0 0 0 0 0 0 0 0 0 0 0 0 0 0 0 0 0 0 0 0 0 0 0 0 0 0 0 0 0 0 0 0 0 0 0 0 0 0 0 0 0 0 0 0 0 0 0 0 0 0 0 0 0 0 0 0 0 0 0 0 0 0 0 0 0 0 0 0 0 0 0 0 0 0 0 0 0 0 0 0 0 0 0 0 0 0 0 0 0 0 0 0 0 0 0 0 0 0 0 0 0 0 0 0 0 0 0 0 0 0 0 0 0 0 0 0 0 0 0 0 0 0 0 0 0 0 0 0 0 0 0 0 0 0 0 0 0 0 0 0 0 0 0 0 0 0 0 0 0 0 0 0 0 0 0 0 0 0 0 0 0 0 0 0 0 0 0 0 0 0 0 0 0 0 0 0 0 0 0 0 0 0 0 0 0 0 0 0 0 0 0 0 0 0 0 0 0 0 0 0 0 0 0 0 0 0 0 0 0 0 0 0 0 0 0 0 0 0 0 0 0 0 0 0 0 0 0 0 0 0 0 0 0 0 0 0 0 0 0 0 0 0 0 0 0 0 0 0 0 0 0 0 0 0 0 0 0 0 0 0 0 0 0 0 0 0 0 0 0 0 0 0 0 0 0 0 0 0 0 0 0 0 0 0 0 0 0 0 0 0 0 0 0 0 0 0 0 0 0 0 0 0 0 0 0 0 0 0 0 0 0 0 0 0 0 0 0 0 0 0 0 0 0 0 0 0 0 0 0 0 0 0 0 0 0 0 0 0 0 0 0 0 0 0 0 0 0 0 0 0 0 0 0 0 0 0 0 0 0 0 0 0 0 0 0 0 0 0 0 0 0 0 0 0 0 0 0 0 0 0 0 0 0 0 0 0 0 0 0 0 0 0 0 0 0 0 0 0 0 0 0 0 0 0 0 0 0 0 0 0 0 0 0 0 0 0 0 0 0 0 0 0 0 0 0 0 0 0 0 0 0 0 0 0 0 0 0 0 0 0 0 0 0 0 0 0 0 0 0 0 0 0 0 0 0 0 0 0 0 0 0 0 0 0 0 0 0 0 0 0 0 0 0 0 0 0 0 0 0 0 0 0 0 0 0 0 0 0 0 0 0 0 0 0 0 0 0 0 0 0 0 0 0 0 0 0 0 0 0 0 0 0 0 0 0 0 0 0 0 0 0 0 0 0 0 0 0 0 0 0 0 0 0 0 0 0 0 0 0 0 0 0 0 0 0 0 0 0 0 0 0 0 0 0 0 0 0 0 0 0 0 0 0 0 0 0 0 0 0 0 0 0 0 0 0 0 0 0 0 0 0 0 0 0 0 0 0 0 0 0 0 0 0 0 0 0 0 0 0 0 0 0 0 0 0 0 0 0 0 0 0 0 0 0 0 0 0 0 0 0 0 0 0 0 0 0 0 0 0 0 0 0 0 0 0 0 0 0 0 0 0 0 0 0 0 0 0 0 0 0 0 0 0 0 0 0 0 0 0 0 0 0 0 0 0 0 0 0 0 0 0 0 0 0 0 0 0 0 0 0 0 0 0 0 0 0 0 0 0 0 0 0 0 0 0 0 0 0 0 0 0 0 0 0 0 0 0 0 0 0 0 0 0 0 0 0 0 0 0 0 0 0 0 0 0 0 0 0 0 0 0 0 0 0 0 0 0 0 0 0 0 0 0 0 0 0 0 0 0 0 0 0 0 0 0 0 0 0 0 0 0 0 0 0 0 0 0 0 0 0 0 0 0 0 0 0 0 0 0 0 0 0 0 0 0 0 0 0 0 0 0 0 0 0 0 0 0 0 0 0 0 0 0 0 0 0 0 0 0 0 0 0 0 0 0 0 0 0 0 0 0 0 0 0 0 0 0 0 0 0 0 0 0 0 0 0 0 0 0 0 0 0 0 0 0 0 0 0 0 0 0 0 0 0 0 0 0 0 0 0 0 0 0 0 0 0 0 0 0 0 0 0 0 0 0 0 0 0 0 0 0 0 0 0 0 0 0 0 0 0 0 0 0 0 0 0 0 0 0 0 0 0 0 0 0 0 0 0 0 0 0 0 0 0 0 0 0 0 0 0 0 0 0 0 0 0 0 0 0 0 0 0 0 0 0 0 0 0 0 0 0 0 0 0 0 0 0 0 0 0 0 0 0 0 0 0 0 0 0 0 0 0 0 0 0 0 0 0 0 0 0 0 0 0 0 0 0 0 0 0 0 0 0 0 0 0 0 0 0 0 0 0 0 0 0 0 0 0 0 0 0 0 0 0 0 0 0 0 0 0 0 0 0 0 0 0 0 0 0 0 0 0 0 0 0 0 0 0 0 0 0 0 0 0 0 0 0 0 0 0 0 0 0 0 0 0 0 0 0 0 0 0 0 0 0 0 0 0 0 0 0 0 0 0 0 0 0 0 0 0 0 0 0 0 0 0 0 0 0 0 0 0 0 0 0 0 0 0 0 0 0 0 0 0 0 0 0 0 0 0 0 0 0 0 0 0 0 0 0 0 0 0 0 0 0 0 0 0 0 0 0 0 0 0 0 0 0 0 0 0 0 0 0 0 0 0 0 0 0 0 0 0 0 0 0 0 0 0 0 0 0 0 0 0 0 0 0 0 0 0 0 0 0 0 0 0 0 0 0 0 0 0 0 0 0 0 0 0 0 0 0 0 0 0 0 0 0 0 0 0 0 0 0 0 0 0 0 0 0 0 0 0 0 0 0 0 0 0 0 0 0 0 0 0 0 0 0 0 0 0 0 0 0 0 0 0 0 0 0 0 0 0 0 0 0 0 0 0 0 0 0 0 0 0 0 0 0 0 0 0 0 0 0 0 0 0 0 0 0 0 0 0 0 0 0 0 0 0 0 0 0 0 0 0 0 0 0 0 0 0 0 0 0 0 0 0 0 0 0 0 0 0 0 0 0 0 0 0 0 0 0 0 0 0 0 0 0 0 0 0 0 0 0 0 0 0 0 0 0 0 0 0 0 0 0 0 0 0 0 0 0 0 0 0 0 0 0 0 0 0 0 0 0 0 0 0 0 0 0 0 0 0 0 0 0 0 0 0 0 0 0 0 0 0 0 0 0 0 0 0 0 0 0 0 0 0 0 0 0 0 0 0 0 0 0 0 0 0 0 0 0 0 0 0 0 0 0 0 0 0 0 0 0 0 0 0 0 0 0 0 0 0 0 0 0 0 0 0 0 0 0 0 0 0 0 0 0 0 0 0 0 0 0 0 0 0 0 0 0 0 0 0 0 0 0 0 0 0 0 0 0 0 0 0 0 0 0 0 0 0 0 0 0 0 0 0 0 0 0 0 0 0 0 0 0 0 0 0 0 0 0 0 0 0 0 0 0 0 0 0 0 0 0 0 0 0 0 0 0 0 0 0 0 0 0 0 0 0 0 0 0 0 0 0 0 0 0 0 0 0 0 0 0 0 0 0 0 0 0 0 0 0 0 0 0 0 0 0 0 0 0 0 0 0 0 0 0 0 0 0 0 0 0 0 0 0 0 0 0 0 0 0 0 0 0 0 0 0 0 0 0 0 0 0 0 0 0 0 0 0 0 0 0 0 0 0 0 0 0 0 0 0 0 0 0 0 0 0 0 0 0 0 0 0 0 0 0 0 0 0 0 0 0 0 0 0 0 0 0 0 0 0 0 0 0 0 0 1 1 1 1 1 1 1 1 1 1 1 1 1 1 1 1 1 1 1 1 1 1 1 1 1 1 1 1 1 1 1 1 1 1 1 1 
				</DataArray>
			</CellData>
			<Points>
				<DataArray type="Float64" Name="Points" NumberOfComponents="3" format="ascii">
				  -0.9 -0.9 0
				  0.9 -0.9 0
				  0.9 0.9 0
				  -0.9 0.9 0
				  0 0 0
				  0 -0.38619 0
				  0 0.38619 0
				  0.33444054 0.193095 0
				  -0.33444054 0.193095 0
				  0.33444054 -0.193095 0
				  -0.33444054 -0.193095 0
				  -0.540000000000881 -0.9 0
				  -0.180000000001895 -0.9 0
				  0.179999999998048 -0.9 0
				  0.539999999999019 -0.9 0
				  0.9 -0.540000000000881 0
				  0.9 -0.180000000001895 0
				  0.9 0.179999999998048 0
				  0.9 0.539999999999019 0
				  0.540000000000881 0.9 0
				  0.180000000001895 0.9 0
				  -0.179999999998048 0.9 0
				  -0.539999999999019 0.9 0
				  -0.9 0.540000000000881 0
				  -0.9 0.180000000001895 0
				  -0.9 -0.179999999998048 0
				  -0.9 -0.539999999999019 0
				  -0.330631616070783 -0.578950505236962 0
				  0.330631616070783 0.578950505236962 0
				  -0.33063161606938 0.578950505237642 0
				  0.33063161606938 -0.578950505237642 0
				  -0.618558980102208 1.11674558489483e-012 0
				  0.618558980102208 -1.11674558489483e-012 0
				  0.620395918059343 -0.355131646237752 0
				  -0.620395918059343 0.355131646237752 0
				  -0.620395918059428 -0.355131646235997 0
				  0.620395918059428 0.355131646235997 0
				  -1.92329755516843e-012 -0.674624164477131 0
				  1.92323152670773e-012 0.674624164477131 0
				  0.638744372183579 0.638744372183069 0
				  -0.638744372183579 -0.638744372183069 0
				  0.638744372184468 -0.638744372184978 0
				  -0.638744372184468 0.638744372184978 0
				  -0.9 -0.9 -0.5
				  0.9 -0.9 -0.5
				  0.9 0.9 -0.5
				  -0.9 0.9 -0.5
				  0 0 -0.5
				  0 -0.38619 -0.5
				  0 0.38619 -0.5
				  0.33444054 0.193095 -0.5
				  -0.33444054 0.193095 -0.5
				  0.33444054 -0.193095 -0.5
				  -0.33444054 -0.193095 -0.5
				  -0.540000000000881 -0.9 -0.5
				  -0.180000000001895 -0.9 -0.5
				  0.179999999998048 -0.9 -0.5
				  0.539999999999019 -0.9 -0.5
				  0.9 -0.540000000000881 -0.5
				  0.9 -0.180000000001895 -0.5
				  0.9 0.179999999998048 -0.5
				  0.9 0.539999999999019 -0.5
				  0.540000000000881 0.9 -0.5
				  0.180000000001895 0.9 -0.5
				  -0.179999999998048 0.9 -0.5
				  -0.539999999999019 0.9 -0.5
				  -0.9 0.540000000000881 -0.5
				  -0.9 0.180000000001895 -0.5
				  -0.9 -0.179999999998048 -0.5
				  -0.9 -0.539999999999019 -0.5
				  -0.330631616070783 -0.578950505236962 -0.5
				  0.330631616070783 0.578950505236962 -0.5
				  -0.33063161606938 0.578950505237642 -0.5
				  0.33063161606938 -0.578950505237642 -0.5
				  -0.618558980102208 1.11674558489483e-012 -0.5
				  0.618558980102208 -1.11674558489483e-012 -0.5
				  0.620395918059343 -0.355131646237752 -0.5
				  -0.620395918059343 0.355131646237752 -0.5
				  -0.620395918059428 -0.355131646235997 -0.5
				  0.620395918059428 0.355131646235997 -0.5
				  -1.92329755516843e-012 -0.674624164477131 -0.5
				  1.92323152670773e-012 0.674624164477131 -0.5
				  0.638744372183579 0.638744372183069 -0.5
				  -0.638744372183579 -0.638744372183069 -0.5
				  0.638744372184468 -0.638744372184978 -0.5
				  -0.638744372184468 0.638744372184978 -0.5
				  -0.9 -0.9 -1
				  0.9 -0.9 -1
				  0.9 0.9 -1
				  -0.9 0.9 -1
				  0 0 -1
				  0 -0.38619 -1
				  0 0.38619 -1
				  0.33444054 0.193095 -1
				  -0.33444054 0.193095 -1
				  0.33444054 -0.193095 -1
				  -0.33444054 -0.193095 -1
				  -0.540000000000881 -0.9 -1
				  -0.180000000001895 -0.9 -1
				  0.179999999998048 -0.9 -1
				  0.539999999999019 -0.9 -1
				  0.9 -0.540000000000881 -1
				  0.9 -0.180000000001895 -1
				  0.9 0.179999999998048 -1
				  0.9 0.539999999999019 -1
				  0.540000000000881 0.9 -1
				  0.180000000001895 0.9 -1
				  -0.179999999998048 0.9 -1
				  -0.539999999999019 0.9 -1
				  -0.9 0.540000000000881 -1
				  -0.9 0.180000000001895 -1
				  -0.9 -0.179999999998048 -1
				  -0.9 -0.539999999999019 -1
				  -0.330631616070783 -0.578950505236962 -1
				  0.330631616070783 0.578950505236962 -1
				  -0.33063161606938 0.578950505237642 -1
				  0.33063161606938 -0.578950505237642 -1
				  -0.618558980102208 1.11674558489483e-012 -1
				  0.618558980102208 -1.11674558489483e-012 -1
				  0.620395918059343 -0.355131646237752 -1
				  -0.620395918059343 0.355131646237752 -1
				  -0.620395918059428 -0.355131646235997 -1
				  0.620395918059428 0.355131646235997 -1
				  -1.92329755516843e-012 -0.674624164477131 -1
				  1.92323152670773e-012 0.674624164477131 -1
				  0.638744372183579 0.638744372183069 -1
				  -0.638744372183579 -0.638744372183069 -1
				  0.638744372184468 -0.638744372184978 -1
				  -0.638744372184468 0.638744372184978 -1
				  -0.9 -0.9 -1.5
				  0.9 -0.9 -1.5
				  0.9 0.9 -1.5
				  -0.9 0.9 -1.5
				  0 0 -1.5
				  0 -0.38619 -1.5
				  0 0.38619 -1.5
				  0.33444054 0.193095 -1.5
				  -0.33444054 0.193095 -1.5
				  0.33444054 -0.193095 -1.5
				  -0.33444054 -0.193095 -1.5
				  -0.540000000000881 -0.9 -1.5
				  -0.180000000001895 -0.9 -1.5
				  0.179999999998048 -0.9 -1.5
				  0.539999999999019 -0.9 -1.5
				  0.9 -0.540000000000881 -1.5
				  0.9 -0.180000000001895 -1.5
				  0.9 0.179999999998048 -1.5
				  0.9 0.539999999999019 -1.5
				  0.540000000000881 0.9 -1.5
				  0.180000000001895 0.9 -1.5
				  -0.179999999998048 0.9 -1.5
				  -0.539999999999019 0.9 -1.5
				  -0.9 0.540000000000881 -1.5
				  -0.9 0.180000000001895 -1.5
				  -0.9 -0.179999999998048 -1.5
				  -0.9 -0.539999999999019 -1.5
				  -0.330631616070783 -0.578950505236962 -1.5
				  0.330631616070783 0.578950505236962 -1.5
				  -0.33063161606938 0.578950505237642 -1.5
				  0.33063161606938 -0.578950505237642 -1.5
				  -0.618558980102208 1.11674558489483e-012 -1.5
				  0.618558980102208 -1.11674558489483e-012 -1.5
				  0.620395918059343 -0.355131646237752 -1.5
				  -0.620395918059343 0.355131646237752 -1.5
				  -0.620395918059428 -0.355131646235997 -1.5
				  0.620395918059428 0.355131646235997 -1.5
				  -1.92329755516843e-012 -0.674624164477131 -1.5
				  1.92323152670773e-012 0.674624164477131 -1.5
				  0.638744372183579 0.638744372183069 -1.5
				  -0.638744372183579 -0.638744372183069 -1.5
				  0.638744372184468 -0.638744372184978 -1.5
				  -0.638744372184468 0.638744372184978 -1.5
				  -0.9 -0.9 -2
				  0.9 -0.9 -2
				  0.9 0.9 -2
				  -0.9 0.9 -2
				  0 0 -2
				  0 -0.38619 -2
				  0 0.38619 -2
				  0.33444054 0.193095 -2
				  -0.33444054 0.193095 -2
				  0.33444054 -0.193095 -2
				  -0.33444054 -0.193095 -2
				  -0.540000000000881 -0.9 -2
				  -0.180000000001895 -0.9 -2
				  0.179999999998048 -0.9 -2
				  0.539999999999019 -0.9 -2
				  0.9 -0.540000000000881 -2
				  0.9 -0.180000000001895 -2
				  0.9 0.179999999998048 -2
				  0.9 0.539999999999019 -2
				  0.540000000000881 0.9 -2
				  0.180000000001895 0.9 -2
				  -0.179999999998048 0.9 -2
				  -0.539999999999019 0.9 -2
				  -0.9 0.540000000000881 -2
				  -0.9 0.180000000001895 -2
				  -0.9 -0.179999999998048 -2
				  -0.9 -0.539999999999019 -2
				  -0.330631616070783 -0.578950505236962 -2
				  0.330631616070783 0.578950505236962 -2
				  -0.33063161606938 0.578950505237642 -2
				  0.33063161606938 -0.578950505237642 -2
				  -0.618558980102208 1.11674558489483e-012 -2
				  0.618558980102208 -1.11674558489483e-012 -2
				  0.620395918059343 -0.355131646237752 -2
				  -0.620395918059343 0.355131646237752 -2
				  -0.620395918059428 -0.355131646235997 -2
				  0.620395918059428 0.355131646235997 -2
				  -1.92329755516843e-012 -0.674624164477131 -2
				  1.92323152670773e-012 0.674624164477131 -2
				  0.638744372183579 0.638744372183069 -2
				  -0.638744372183579 -0.638744372183069 -2
				  0.638744372184468 -0.638744372184978 -2
				  -0.638744372184468 0.638744372184978 -2
				  -0.9 -0.9 -2.5
				  0.9 -0.9 -2.5
				  0.9 0.9 -2.5
				  -0.9 0.9 -2.5
				  0 0 -2.5
				  0 -0.38619 -2.5
				  0 0.38619 -2.5
				  0.33444054 0.193095 -2.5
				  -0.33444054 0.193095 -2.5
				  0.33444054 -0.193095 -2.5
				  -0.33444054 -0.193095 -2.5
				  -0.540000000000881 -0.9 -2.5
				  -0.180000000001895 -0.9 -2.5
				  0.179999999998048 -0.9 -2.5
				  0.539999999999019 -0.9 -2.5
				  0.9 -0.540000000000881 -2.5
				  0.9 -0.180000000001895 -2.5
				  0.9 0.179999999998048 -2.5
				  0.9 0.539999999999019 -2.5
				  0.540000000000881 0.9 -2.5
				  0.180000000001895 0.9 -2.5
				  -0.179999999998048 0.9 -2.5
				  -0.539999999999019 0.9 -2.5
				  -0.9 0.540000000000881 -2.5
				  -0.9 0.180000000001895 -2.5
				  -0.9 -0.179999999998048 -2.5
				  -0.9 -0.539999999999019 -2.5
				  -0.330631616070783 -0.578950505236962 -2.5
				  0.330631616070783 0.578950505236962 -2.5
				  -0.33063161606938 0.578950505237642 -2.5
				  0.33063161606938 -0.578950505237642 -2.5
				  -0.618558980102208 1.11674558489483e-012 -2.5
				  0.618558980102208 -1.11674558489483e-012 -2.5
				  0.620395918059343 -0.355131646237752 -2.5
				  -0.620395918059343 0.355131646237752 -2.5
				  -0.620395918059428 -0.355131646235997 -2.5
				  0.620395918059428 0.355131646235997 -2.5
				  -1.92329755516843e-012 -0.674624164477131 -2.5
				  1.92323152670773e-012 0.674624164477131 -2.5
				  0.638744372183579 0.638744372183069 -2.5
				  -0.638744372183579 -0.638744372183069 -2.5
				  0.638744372184468 -0.638744372184978 -2.5
				  -0.638744372184468 0.638744372184978 -2.5
				  -0.9 -0.9 -3
				  0.9 -0.9 -3
				  0.9 0.9 -3
				  -0.9 0.9 -3
				  0 0 -3
				  0 -0.38619 -3
				  0 0.38619 -3
				  0.33444054 0.193095 -3
				  -0.33444054 0.193095 -3
				  0.33444054 -0.193095 -3
				  -0.33444054 -0.193095 -3
				  -0.540000000000881 -0.9 -3
				  -0.180000000001895 -0.9 -3
				  0.179999999998048 -0.9 -3
				  0.539999999999019 -0.9 -3
				  0.9 -0.540000000000881 -3
				  0.9 -0.180000000001895 -3
				  0.9 0.179999999998048 -3
				  0.9 0.539999999999019 -3
				  0.540000000000881 0.9 -3
				  0.180000000001895 0.9 -3
				  -0.179999999998048 0.9 -3
				  -0.539999999999019 0.9 -3
				  -0.9 0.540000000000881 -3
				  -0.9 0.180000000001895 -3
				  -0.9 -0.179999999998048 -3
				  -0.9 -0.539999999999019 -3
				  -0.330631616070783 -0.578950505236962 -3
				  0.330631616070783 0.578950505236962 -3
				  -0.33063161606938 0.578950505237642 -3
				  0.33063161606938 -0.578950505237642 -3
				  -0.618558980102208 1.11674558489483e-012 -3
				  0.618558980102208 -1.11674558489483e-012 -3
				  0.620395918059343 -0.355131646237752 -3
				  -0.620395918059343 0.355131646237752 -3
				  -0.620395918059428 -0.355131646235997 -3
				  0.620395918059428 0.355131646235997 -3
				  -1.92329755516843e-012 -0.674624164477131 -3
				  1.92323152670773e-012 0.674624164477131 -3
				  0.638744372183579 0.638744372183069 -3
				  -0.638744372183579 -0.638744372183069 -3
				  0.638744372184468 -0.638744372184978 -3
				  -0.638744372184468 0.638744372184978 -3
				  -0.9 -0.9 -3.5
				  0.9 -0.9 -3.5
				  0.9 0.9 -3.5
				  -0.9 0.9 -3.5
				  0 0 -3.5
				  0 -0.38619 -3.5
				  0 0.38619 -3.5
				  0.33444054 0.193095 -3.5
				  -0.33444054 0.193095 -3.5
				  0.33444054 -0.193095 -3.5
				  -0.33444054 -0.193095 -3.5
				  -0.540000000000881 -0.9 -3.5
				  -0.180000000001895 -0.9 -3.5
				  0.179999999998048 -0.9 -3.5
				  0.539999999999019 -0.9 -3.5
				  0.9 -0.540000000000881 -3.5
				  0.9 -0.180000000001895 -3.5
				  0.9 0.179999999998048 -3.5
				  0.9 0.539999999999019 -3.5
				  0.540000000000881 0.9 -3.5
				  0.180000000001895 0.9 -3.5
				  -0.179999999998048 0.9 -3.5
				  -0.539999999999019 0.9 -3.5
				  -0.9 0.540000000000881 -3.5
				  -0.9 0.180000000001895 -3.5
				  -0.9 -0.179999999998048 -3.5
				  -0.9 -0.539999999999019 -3.5
				  -0.330631616070783 -0.578950505236962 -3.5
				  0.330631616070783 0.578950505236962 -3.5
				  -0.33063161606938 0.578950505237642 -3.5
				  0.33063161606938 -0.578950505237642 -3.5
				  -0.618558980102208 1.11674558489483e-012 -3.5
				  0.618558980102208 -1.11674558489483e-012 -3.5
				  0.620395918059343 -0.355131646237752 -3.5
				  -0.620395918059343 0.355131646237752 -3.5
				  -0.620395918059428 -0.355131646235997 -3.5
				  0.620395918059428 0.355131646235997 -3.5
				  -1.92329755516843e-012 -0.674624164477131 -3.5
				  1.92323152670773e-012 0.674624164477131 -3.5
				  0.638744372183579 0.638744372183069 -3.5
				  -0.638744372183579 -0.638744372183069 -3.5
				  0.638744372184468 -0.638744372184978 -3.5
				  -0.638744372184468 0.638744372184978 -3.5
				  -0.9 -0.9 -4
				  0.9 -0.9 -4
				  0.9 0.9 -4
				  -0.9 0.9 -4
				  0 0 -4
				  0 -0.38619 -4
				  0 0.38619 -4
				  0.33444054 0.193095 -4
				  -0.33444054 0.193095 -4
				  0.33444054 -0.193095 -4
				  -0.33444054 -0.193095 -4
				  -0.540000000000881 -0.9 -4
				  -0.180000000001895 -0.9 -4
				  0.179999999998048 -0.9 -4
				  0.539999999999019 -0.9 -4
				  0.9 -0.540000000000881 -4
				  0.9 -0.180000000001895 -4
				  0.9 0.179999999998048 -4
				  0.9 0.539999999999019 -4
				  0.540000000000881 0.9 -4
				  0.180000000001895 0.9 -4
				  -0.179999999998048 0.9 -4
				  -0.539999999999019 0.9 -4
				  -0.9 0.540000000000881 -4
				  -0.9 0.180000000001895 -4
				  -0.9 -0.179999999998048 -4
				  -0.9 -0.539999999999019 -4
				  -0.330631616070783 -0.578950505236962 -4
				  0.330631616070783 0.578950505236962 -4
				  -0.33063161606938 0.578950505237642 -4
				  0.33063161606938 -0.578950505237642 -4
				  -0.618558980102208 1.11674558489483e-012 -4
				  0.618558980102208 -1.11674558489483e-012 -4
				  0.620395918059343 -0.355131646237752 -4
				  -0.620395918059343 0.355131646237752 -4
				  -0.620395918059428 -0.355131646235997 -4
				  0.620395918059428 0.355131646235997 -4
				  -1.92329755516843e-012 -0.674624164477131 -4
				  1.92323152670773e-012 0.674624164477131 -4
				  0.638744372183579 0.638744372183069 -4
				  -0.638744372183579 -0.638744372183069 -4
				  0.638744372184468 -0.638744372184978 -4
				  -0.638744372184468 0.638744372184978 -4
				  -0.9 -0.9 -4.5
				  0.9 -0.9 -4.5
				  0.9 0.9 -4.5
				  -0.9 0.9 -4.5
				  0 0 -4.5
				  0 -0.38619 -4.5
				  0 0.38619 -4.5
				  0.33444054 0.193095 -4.5
				  -0.33444054 0.193095 -4.5
				  0.33444054 -0.193095 -4.5
				  -0.33444054 -0.193095 -4.5
				  -0.540000000000881 -0.9 -4.5
				  -0.180000000001895 -0.9 -4.5
				  0.179999999998048 -0.9 -4.5
				  0.539999999999019 -0.9 -4.5
				  0.9 -0.540000000000881 -4.5
				  0.9 -0.180000000001895 -4.5
				  0.9 0.179999999998048 -4.5
				  0.9 0.539999999999019 -4.5
				  0.540000000000881 0.9 -4.5
				  0.180000000001895 0.9 -4.5
				  -0.179999999998048 0.9 -4.5
				  -0.539999999999019 0.9 -4.5
				  -0.9 0.540000000000881 -4.5
				  -0.9 0.180000000001895 -4.5
				  -0.9 -0.179999999998048 -4.5
				  -0.9 -0.539999999999019 -4.5
				  -0.330631616070783 -0.578950505236962 -4.5
				  0.330631616070783 0.578950505236962 -4.5
				  -0.33063161606938 0.578950505237642 -4.5
				  0.33063161606938 -0.578950505237642 -4.5
				  -0.618558980102208 1.11674558489483e-012 -4.5
				  0.618558980102208 -1.11674558489483e-012 -4.5
				  0.620395918059343 -0.355131646237752 -4.5
				  -0.620395918059343 0.355131646237752 -4.5
				  -0.620395918059428 -0.355131646235997 -4.5
				  0.620395918059428 0.355131646235997 -4.5
				  -1.92329755516843e-012 -0.674624164477131 -4.5
				  1.92323152670773e-012 0.674624164477131 -4.5
				  0.638744372183579 0.638744372183069 -4.5
				  -0.638744372183579 -0.638744372183069 -4.5
				  0.638744372184468 -0.638744372184978 -4.5
				  -0.638744372184468 0.638744372184978 -4.5
				  -0.9 -0.9 -5
				  0.9 -0.9 -5
				  0.9 0.9 -5
				  -0.9 0.9 -5
				  0 0 -5
				  0 -0.38619 -5
				  0 0.38619 -5
				  0.33444054 0.193095 -5
				  -0.33444054 0.193095 -5
				  0.33444054 -0.193095 -5
				  -0.33444054 -0.193095 -5
				  -0.540000000000881 -0.9 -5
				  -0.180000000001895 -0.9 -5
				  0.179999999998048 -0.9 -5
				  0.539999999999019 -0.9 -5
				  0.9 -0.540000000000881 -5
				  0.9 -0.180000000001895 -5
				  0.9 0.179999999998048 -5
				  0.9 0.539999999999019 -5
				  0.540000000000881 0.9 -5
				  0.180000000001895 0.9 -5
				  -0.179999999998048 0.9 -5
				  -0.539999999999019 0.9 -5
				  -0.9 0.540000000000881 -5
				  -0.9 0.180000000001895 -5
				  -0.9 -0.179999999998048 -5
				  -0.9 -0.539999999999019 -5
				  -0.330631616070783 -0.578950505236962 -5
				  0.330631616070783 0.578950505236962 -5
				  -0.33063161606938 0.578950505237642 -5
				  0.33063161606938 -0.578950505237642 -5
				  -0.618558980102208 1.11674558489483e-012 -5
				  0.618558980102208 -1.11674558489483e-012 -5
				  0.620395918059343 -0.355131646237752 -5
				  -0.620395918059343 0.355131646237752 -5
				  -0.620395918059428 -0.355131646235997 -5
				  0.620395918059428 0.355131646235997 -5
				  -1.92329755516843e-012 -0.674624164477131 -5
				  1.92323152670773e-012 0.674624164477131 -5
				  0.638744372183579 0.638744372183069 -5
				  -0.638744372183579 -0.638744372183069 -5
				  0.638744372184468 -0.638744372184978 -5
				  -0.638744372184468 0.638744372184978 -5
				  -0.9 -0.9 -5.5
				  0.9 -0.9 -5.5
				  0.9 0.9 -5.5
				  -0.9 0.9 -5.5
				  0 0 -5.5
				  0 -0.38619 -5.5
				  0 0.38619 -5.5
				  0.33444054 0.193095 -5.5
				  -0.33444054 0.193095 -5.5
				  0.33444054 -0.193095 -5.5
				  -0.33444054 -0.193095 -5.5
				  -0.540000000000881 -0.9 -5.5
				  -0.180000000001895 -0.9 -5.5
				  0.179999999998048 -0.9 -5.5
				  0.539999999999019 -0.9 -5.5
				  0.9 -0.540000000000881 -5.5
				  0.9 -0.180000000001895 -5.5
				  0.9 0.179999999998048 -5.5
				  0.9 0.539999999999019 -5.5
				  0.540000000000881 0.9 -5.5
				  0.180000000001895 0.9 -5.5
				  -0.179999999998048 0.9 -5.5
				  -0.539999999999019 0.9 -5.5
				  -0.9 0.540000000000881 -5.5
				  -0.9 0.180000000001895 -5.5
				  -0.9 -0.179999999998048 -5.5
				  -0.9 -0.539999999999019 -5.5
				  -0.330631616070783 -0.578950505236962 -5.5
				  0.330631616070783 0.578950505236962 -5.5
				  -0.33063161606938 0.578950505237642 -5.5
				  0.33063161606938 -0.578950505237642 -5.5
				  -0.618558980102208 1.11674558489483e-012 -5.5
				  0.618558980102208 -1.11674558489483e-012 -5.5
				  0.620395918059343 -0.355131646237752 -5.5
				  -0.620395918059343 0.355131646237752 -5.5
				  -0.620395918059428 -0.355131646235997 -5.5
				  0.620395918059428 0.355131646235997 -5.5
				  -1.92329755516843e-012 -0.674624164477131 -5.5
				  1.92323152670773e-012 0.674624164477131 -5.5
				  0.638744372183579 0.638744372183069 -5.5
				  -0.638744372183579 -0.638744372183069 -5.5
				  0.638744372184468 -0.638744372184978 -5.5
				  -0.638744372184468 0.638744372184978 -5.5
				  -0.9 -0.9 -6
				  0.9 -0.9 -6
				  0.9 0.9 -6
				  -0.9 0.9 -6
				  0 0 -6
				  0 -0.38619 -6
				  0 0.38619 -6
				  0.33444054 0.193095 -6
				  -0.33444054 0.193095 -6
				  0.33444054 -0.193095 -6
				  -0.33444054 -0.193095 -6
				  -0.540000000000881 -0.9 -6
				  -0.180000000001895 -0.9 -6
				  0.179999999998048 -0.9 -6
				  0.539999999999019 -0.9 -6
				  0.9 -0.540000000000881 -6
				  0.9 -0.180000000001895 -6
				  0.9 0.179999999998048 -6
				  0.9 0.539999999999019 -6
				  0.540000000000881 0.9 -6
				  0.180000000001895 0.9 -6
				  -0.179999999998048 0.9 -6
				  -0.539999999999019 0.9 -6
				  -0.9 0.540000000000881 -6
				  -0.9 0.180000000001895 -6
				  -0.9 -0.179999999998048 -6
				  -0.9 -0.539999999999019 -6
				  -0.330631616070783 -0.578950505236962 -6
				  0.330631616070783 0.578950505236962 -6
				  -0.33063161606938 0.578950505237642 -6
				  0.33063161606938 -0.578950505237642 -6
				  -0.618558980102208 1.11674558489483e-012 -6
				  0.618558980102208 -1.11674558489483e-012 -6
				  0.620395918059343 -0.355131646237752 -6
				  -0.620395918059343 0.355131646237752 -6
				  -0.620395918059428 -0.355131646235997 -6
				  0.620395918059428 0.355131646235997 -6
				  -1.92329755516843e-012 -0.674624164477131 -6
				  1.92323152670773e-012 0.674624164477131 -6
				  0.638744372183579 0.638744372183069 -6
				  -0.638744372183579 -0.638744372183069 -6
				  0.638744372184468 -0.638744372184978 -6
				  -0.638744372184468 0.638744372184978 -6
				  -0.9 -0.9 -6.5
				  0.9 -0.9 -6.5
				  0.9 0.9 -6.5
				  -0.9 0.9 -6.5
				  0 0 -6.5
				  0 -0.38619 -6.5
				  0 0.38619 -6.5
				  0.33444054 0.193095 -6.5
				  -0.33444054 0.193095 -6.5
				  0.33444054 -0.193095 -6.5
				  -0.33444054 -0.193095 -6.5
				  -0.540000000000881 -0.9 -6.5
				  -0.180000000001895 -0.9 -6.5
				  0.179999999998048 -0.9 -6.5
				  0.539999999999019 -0.9 -6.5
				  0.9 -0.540000000000881 -6.5
				  0.9 -0.180000000001895 -6.5
				  0.9 0.179999999998048 -6.5
				  0.9 0.539999999999019 -6.5
				  0.540000000000881 0.9 -6.5
				  0.180000000001895 0.9 -6.5
				  -0.179999999998048 0.9 -6.5
				  -0.539999999999019 0.9 -6.5
				  -0.9 0.540000000000881 -6.5
				  -0.9 0.180000000001895 -6.5
				  -0.9 -0.179999999998048 -6.5
				  -0.9 -0.539999999999019 -6.5
				  -0.330631616070783 -0.578950505236962 -6.5
				  0.330631616070783 0.578950505236962 -6.5
				  -0.33063161606938 0.578950505237642 -6.5
				  0.33063161606938 -0.578950505237642 -6.5
				  -0.618558980102208 1.11674558489483e-012 -6.5
				  0.618558980102208 -1.11674558489483e-012 -6.5
				  0.620395918059343 -0.355131646237752 -6.5
				  -0.620395918059343 0.355131646237752 -6.5
				  -0.620395918059428 -0.355131646235997 -6.5
				  0.620395918059428 0.355131646235997 -6.5
				  -1.92329755516843e-012 -0.674624164477131 -6.5
				  1.92323152670773e-012 0.674624164477131 -6.5
				  0.638744372183579 0.638744372183069 -6.5
				  -0.638744372183579 -0.638744372183069 -6.5
				  0.638744372184468 -0.638744372184978 -6.5
				  -0.638744372184468 0.638744372184978 -6.5
				  -0.9 -0.9 -7
				  0.9 -0.9 -7
				  0.9 0.9 -7
				  -0.9 0.9 -7
				  0 0 -7
				  0 -0.38619 -7
				  0 0.38619 -7
				  0.33444054 0.193095 -7
				  -0.33444054 0.193095 -7
				  0.33444054 -0.193095 -7
				  -0.33444054 -0.193095 -7
				  -0.540000000000881 -0.9 -7
				  -0.180000000001895 -0.9 -7
				  0.179999999998048 -0.9 -7
				  0.539999999999019 -0.9 -7
				  0.9 -0.540000000000881 -7
				  0.9 -0.180000000001895 -7
				  0.9 0.179999999998048 -7
				  0.9 0.539999999999019 -7
				  0.540000000000881 0.9 -7
				  0.180000000001895 0.9 -7
				  -0.179999999998048 0.9 -7
				  -0.539999999999019 0.9 -7
				  -0.9 0.540000000000881 -7
				  -0.9 0.180000000001895 -7
				  -0.9 -0.179999999998048 -7
				  -0.9 -0.539999999999019 -7
				  -0.330631616070783 -0.578950505236962 -7
				  0.330631616070783 0.578950505236962 -7
				  -0.33063161606938 0.578950505237642 -7
				  0.33063161606938 -0.578950505237642 -7
				  -0.618558980102208 1.11674558489483e-012 -7
				  0.618558980102208 -1.11674558489483e-012 -7
				  0.620395918059343 -0.355131646237752 -7
				  -0.620395918059343 0.355131646237752 -7
				  -0.620395918059428 -0.355131646235997 -7
				  0.620395918059428 0.355131646235997 -7
				  -1.92329755516843e-012 -0.674624164477131 -7
				  1.92323152670773e-012 0.674624164477131 -7
				  0.638744372183579 0.638744372183069 -7
				  -0.638744372183579 -0.638744372183069 -7
				  0.638744372184468 -0.638744372184978 -7
				  -0.638744372184468 0.638744372184978 -7
				  -0.9 -0.9 -7.5
				  0.9 -0.9 -7.5
				  0.9 0.9 -7.5
				  -0.9 0.9 -7.5
				  0 0 -7.5
				  0 -0.38619 -7.5
				  0 0.38619 -7.5
				  0.33444054 0.193095 -7.5
				  -0.33444054 0.193095 -7.5
				  0.33444054 -0.193095 -7.5
				  -0.33444054 -0.193095 -7.5
				  -0.540000000000881 -0.9 -7.5
				  -0.180000000001895 -0.9 -7.5
				  0.179999999998048 -0.9 -7.5
				  0.539999999999019 -0.9 -7.5
				  0.9 -0.540000000000881 -7.5
				  0.9 -0.180000000001895 -7.5
				  0.9 0.179999999998048 -7.5
				  0.9 0.539999999999019 -7.5
				  0.540000000000881 0.9 -7.5
				  0.180000000001895 0.9 -7.5
				  -0.179999999998048 0.9 -7.5
				  -0.539999999999019 0.9 -7.5
				  -0.9 0.540000000000881 -7.5
				  -0.9 0.180000000001895 -7.5
				  -0.9 -0.179999999998048 -7.5
				  -0.9 -0.539999999999019 -7.5
				  -0.330631616070783 -0.578950505236962 -7.5
				  0.330631616070783 0.578950505236962 -7.5
				  -0.33063161606938 0.578950505237642 -7.5
				  0.33063161606938 -0.578950505237642 -7.5
				  -0.618558980102208 1.11674558489483e-012 -7.5
				  0.618558980102208 -1.11674558489483e-012 -7.5
				  0.620395918059343 -0.355131646237752 -7.5
				  -0.620395918059343 0.355131646237752 -7.5
				  -0.620395918059428 -0.355131646235997 -7.5
				  0.620395918059428 0.355131646235997 -7.5
				  -1.92329755516843e-012 -0.674624164477131 -7.5
				  1.92323152670773e-012 0.674624164477131 -7.5
				  0.638744372183579 0.638744372183069 -7.5
				  -0.638744372183579 -0.638744372183069 -7.5
				  0.638744372184468 -0.638744372184978 -7.5
				  -0.638744372184468 0.638744372184978 -7.5