<VTKFile type="UnstructuredGrid" version="1.0" byte_order="LittleEndian" header_type="UInt64">
  <UnstructuredGrid>
    <Piece NumberOfPoints="8944" NumberOfCells="15410">
      <PointData Scalars="t_conc_ini">
        <DataArray type="Float64" Name="CONCENTRATION1" format="ascii" RangeMin="-0.0008420454779" RangeMax="1.0000004186">
          0 0 0 0 0 0
          0 0 0 0 0 0
          0 0 0 0 0 0
          0 0 0 0 0 0
          0 0 0 0 0 0
          0 0 0 0 0 0
          0 0 0 0 0 0
          0 0 0 0 0 0
          0 0 0 0 0 0
          0 0 0 0 0 0
          0 0 0 0 0 0
          0 0 0 0 0 0
          0 0 0 0 0 0
          0 0 0 0 0 0
          0 0 0 0 0 0
          0 0 0 0 0 0
          0 0 0 0 0 0
          0 0 0 0 0 0
          0 0 0 0 0 0
          0 0 0 0 0 0
          0 0 0 0 0 0
          0 0 0 0 0 0
          0 0 0 0 0 0
          0 0 0 0 0 0
          0 0 0 0 0 0
          0 0 0 0 0 0
          0 0 0 0 0 0
          0 0 0 0 0 0
          0 0 0 0 0 0
          0 0 0 0 0 0
          0 0 0 0 0 0
          0 0 0 0 0 0
          0 0 0 0 0 0
          0 0 0 0 0 0
          0 0 0 0 0 0
          0 0 0 0 0 0
          0 0 0 0 0 0
          0 0 0 0 0 0
          0 0 0 0 0 0
          0 0 0 0 0 0
          0 0 0 0 0 0
          0 0 0 0 0 0
          0 0 0 0 0 0
          0 0 0 0 0 0
          0 0 0 0 0 0
          0 0 0 0 0 0
          0 0 0 0 0 0
          0 0 0 0 0 0
          0 0 0 0 0 0
          0 0 0 0 0 0
          0 0 0 0 0 0
          0 0 0 0 0 0
          0 0 0 0 0 0
          0 0 0 0 0 0
          0 0 0 0 0 0
          0 0 0 0 0 0
          0 0 0 0 0 0
          0 0 0 0 0 0
          0 0 0 0 0 0
          0 0 0 0 0 0
          0 0 0 0 0 0
          0 0 0 0 0 0
          0 0 0 0 0 0
          0 0 0 0 0 0
          0 0 0 0 0 0
          0 0 0 0 0 0
          0 0 0 0 0 0
          0 0 0 0 0 0
          0 0 0 0 0 0
          0 0 0 0 0 0
          0 0 0 0 0 0
          0 0 0 0 0 0
          0 0 0 0 0 0
          0 0 0 0 0 0
          0 0 0 0 0 0
          0 0 0 0 0 0
          0 0 0 0 0 0
          0 0 0 0 0 0
          0 0 0 0 0 0
          0 0 0 0 0 0
          0 0 0 0 0 0
          0 0 0 0 0 0
          0 0 0 0 0 0
          0 0 0 0 0 0
          0 0 0 0 0 0
          0 0 0 0 0 0
          0 0 0 0 0 0
          0 0 0 0 0 0
          0 0 0 0 0 0
          0 0 0 0 0 0
          0 0 0 0 0 0
          0 0 0 0 0 0
          0 0 0 0 0 0
          0 0 0 0 0 0
          0 0 0 0 0 0
          0 0 0 0 0 0
          0 0 0 0 0 0
          0 0 0 0 0 0
          0 0 0 0 0 0
          0 0 0 0 0 0
          0 0 0 0 0 0
          0 0 0 0 0 0
          0 0 0 0 0 0
          0 0 0 0 0 0
          0 0 0 0 0 0
          0 0 0 0 0 0
          0 0 0 0 0 0
          0 0 0 0 0 0
          0 0 0 0 0 0
          0 0 0 0 0 0
          0 0 0 0 0 0
          0 0 0 0 0 0
          0 0 0 0 0 0
          0 0 0 0 0 0
          0 0 0 0 0 0
          0 0 0 0 0 0
          0 0 0 0 0 0
          0 0 0 0 0 0
          0 0 0 0 0 0
          0 0 0 0 0 0
          0 0 0 0 0 0
          0 0 0 0 0 0
          0 0 0 0 0 0
          0 0 0 0 0 0
          0 0 0 0 0 0
          0 0 0 0 0 0
          0 0 0 0 0 0
          0 0 0 0 0 0
          0 0 0 0 0 0
          0 0 0 0 0 0
          0 0 0 0 0 0
          0 0 0 0 0 0
          0 0 0 0 0 0
          0 0 0 0 0 0
          0 0 0 0 0 0
          0 0 0 0 0 0
          0 0 0 0 0 0
          0 0 0 0 0 0
          0 0 0 0 0 0
          0 0 0 0 0 0
          0 0 0 0 0 0
          0 0 0 0 0 0
          0 0 0 0 0 0
          0 0 0 0 0 0
          0 0 0 0 0 0
          0 0 0 0 0 0
          0 0 0 0 0 0
          0 0 0 0 0 0
          0 0 0 0 0 0
          0 0 0 0 0 0
          0 0 0 0 0 0
          0 0 0 0 0 0
          0 0 0 0 0 0
          0 0 0 0 0 0
          0 0 0 0 0 0
          0 0 0 0 0 0
          0 0 0 0 0 0
          0 0 0 0 0 0
          0 0 0 0 0 0
          0 0 0 0 0 0
          0 0 0 0 0 0
          0 0 0 0 0 0
          0 0 0 0 0 0
          0 0 0 0 0 0
          0 0 0 0 0 0
          0 0 0 0 0 0
          0 0 0 0 0 0
          0 0 0 0 0 0
          0 0 0 0 0 0
          0 0 0 0 0 0
          0 0 0 0 0 0
          0 0 0 0 0 0
          0 0 0 0 0 0
          0 0 0 0 0 0
          0 0 0 0 0 0
          0 0 0 0 0 0
          0 0 0 0 0 0
          0 0 0 0 0 0
          0 0 0 0 0 0
          0 0 0 0 0 0
          0 0 0 0 0 0
          0 0 0 0 0 0
          0 0 0 0 0 0
          0 0 0 0 0 0
          0 0 0 0 0 0
          0 0 0 0 0 0
          0 0 0 0 0 0
          0 0 0 0 0 0
          0 0 0 0 0 0
          0 0 0 0 0 0
          0 0 0 0 0 0
          0 0 0 0 0 0
          0 0 0 0 0 0
          0 0 0 0 0 0
          0 0 0 0 0 0
          0 0 0 0 0 0
          0 0 0 0 0 0
          0 0 0 0 0 0
          0 0 0 0 0 0
          0 0 0 0 0 0
          0 0 0 0 0 0
          0 0 0 0 0 0
          0 0 0 0 0 0
          0 0 0 0 0 0
          0 0 0 0 0 0
          0 0 0 0 0 0
          0 0 0 0 0 0
          0 0 0 0 0 0
          0 0 0 0 0 0
          0 0 0 0 0 0
          0 0 0 0 0 0
          0 0 0 0 0 0
          0 0 0 0 0 0
          0 0 0 0 0 0
          0 0 0 0 0 0
          0 0 0 0 0 0
          0 0 0 0 0 0
          0 0 0 0 0 0
          0 0 0 0 0 0
          0 0 0 0 0 0
          0 0 0 0 0 0
          0 0 0 0 0 0
          0 0 0 0 0 0
          0 0 0 0 0 0
          0 0 0 0 0 0
          0 0 0 0 0 0
          0 0 0 0 0 0
          0 0 0 0 0 0
          0 0 0 0 0 0
          0 0 0 0 0 0
          0 0 0 0 0 0
          0 0 0 0 0 0
          0 0 0 0 0 0
          0 0 0 0 0 0
          0 0 0 0 0 0
          0 0 0 0 0 0
          0 0 0 0 0 0
          0 0 0 0 0 0
          0 0 0 0 0 0
          0 0 0 0 0 0
          0 0 0 0 0 0
          0 0 0 0 0 0
          0 0 0 0 0 0
          0 0 0 0 0 0
          0 0 0 0 0 0
          0 0 0 0 0 0
          0 0 0 0 0 0
          0 0 0 0 0 0
          0 0 0 0 0 0
          0 0 0 0 0 0
          0 0 0 0 0 0
          0 0 0 0 0 0
          0 0 0 0 0 0
          0 0 0 0 0 0
          0 0 0 0 0 0
          0 0 0 0 0 0
          0 0 0 0 0 0
          0 0 0 0 0 0
          0 0 0 0 0 0
          0 0 0 0 0 0
          0 0 0 0 0 0
          0 0 0 0 0 0
          0 0 0 0 0 0
          0 0 0 0 0 0
          0 0 0 0 0 0
          0 0 0 0 0 0
          0 0 0 0 0 0
          0 0 0 0 0 0
          0 0 0 0 0 0
          0 0 0 0 0 0
          0 0 0 0 0 0
          0 0 0 0 0 0
          0 0 0 0 0 0
          0 0 0 0 0 0
          0 0 0 0 0 0
          0 0 0 0 0 0
          0 0 0 0 0 0
          0 0 0 0 0 0
          0 0 0 0 0 0
          0 0 0 0 0 0
          0 0 0 0 0 0
          0 0 0 0 0 0
          0 0 0 0 0 0
          0 0 0 0 0 0
          0 0 0 0 0 0
          0 0 0 0 0 0
          0 0 0 0 0 0
          0 0 0 0 0 0
          0 0 0 0 0 0
          0 0 0 0 0 0
          0 0 0 0 0 0
          0 0 0 0 0 0
          0 0 0 0 0 0
          0 0 0 0 0 0
          0 0 0 0 0 0
          0 0 0 0 0 0
          0 0 0 0 0 0
          0 0 0 0 0 0
          0 0 0 0 0 0
          0 0 0 0 0 0
          0 0 0 0 0 0
          0 0 0 0 0 0
          0 0 0 0 0 0
          0 0 0 0 0 0
          0 0 0 0 0 0
          0 0 0 0 0 0
          0 0 0 0 0 0
          0 0 0 0 0 0
          0 0 0 0 0 0
          0 0 0 0 0 0
          0 0 0 0 0 0
          0 0 0 0 0 0
          0 0 0 0 0 0
          0 0 0 0 0 0
          0 0 0 0 0 0
          0 0 0 0 0 0
          0 0 0 0 0 0
          0 0 0 0 0 0
          0 0 0 0 0 0
          0 0 0 0 0 0
          0 0 0 0 0 0
          0 0 0 0 0 0
          0 0 0 0 0 0
          0 0 0 0 0 0
          0 0 0 0 0 0
          0 0 0 0 0 0
          0 0 0 0 0 0
          0 0 0 0 0 0
          0 0 0 0 0 0
          0 0 0 0 0 0
          0 0 0 0 0 0
          0 0 0 0 0 0
          0 0 0 0 0 0
          0 0 0 0 0 0
          0 0 0 0 0 0
          0 0 0 0 0 0
          0 0 0 0 0 0
          0 0 0 0 0 0
          0 0 0 0 0 0
          0 0 0 0 0 0
          0 0 0 0 0 0
          0 0 0 0 0 0
          0 0 0 0 0 0
          0 0 0 0 0 0
          0 0 0 0 0 0
          0 0 0 0 0 0
          0 0 0 0 0 0
          0 0 0 0 0 0
          0 0 0 0 0 0
          0 0 0 0 0 0
          0 0 0 0 0 0
          0 0 0 0 0 0
          0 0 0 0 0 0
          0 0 0 0 0 0
          0 0 0 0 0 0
          0 0 0 0 0 0
          0 0 0 0 0 0
          0 0 0 0 0 0
          0 0 0 0 0 0
          0 0 0 0 0 0
          0 0 0 0 0 0
          0 0 0 0 0 0
          0 0 0 0 0 0
          0 0 0 0 0 0
          0 0 0 0 0 0
          0 0 0 0 0 0
          0 0 0 0 0 0
          0 0 0 0 0 0
          0 0 0 0 0 0
          0 0 0 0 0 0
          0 0 0 0 0 0
          0.37380191071 0.13593283468 0.048481447062 0.016980725241 0.00611103723 0.0021563907234
          0.00073131470312 0.00024024558438 8.5878482449e-05 2.9770606435e-05 1.0499116929e-05 3.6086102931e-06
          1.2935869025e-06 4.5540288547e-07 1.6505314431e-07 5.6365081632e-08 2.0110456194e-08 7.1065574558e-09
          2.4356291804e-09 8.2808030382e-10 2.8728273318e-10 1.0410894974e-10 4.0466540248e-11 1.5052399607e-11
          5.8849653098e-12 1.9314645623e-12 6.525727844e-13 2.2906598403e-13 8.168927415e-14 3.2272945487e-14
          1.2231836514e-14 4.0100292574e-15 1.4484489639e-15 5.3078756525e-16 2.100709185e-16 6.9350589252e-17
          2.4427217405e-17 6.8685807904e-18 -2.5858269087e-21 -1.8300313896e-18 -2.5097066454e-18 -2.8367063156e-18
          -2.924725287e-18 -2.9482408238e-18 -2.943972427e-18 -2.9320453522e-18 -2.9337089782e-18 -2.920761329e-18
          -2.9035328545e-18 -2.9082743691e-18 -2.8892010812e-18 -2.9099647494e-18 -2.9066027696e-18 -2.8994288342e-18
          -2.8940352633e-18 -2.8852417191e-18 -2.8755976458e-18 -2.8897476485e-18 -2.8900781317e-18 -2.8956250044e-18
          -2.8961234045e-18 -2.8929728671e-18 -2.8882334924e-18 -2.878507121e-18 -2.8746925562e-18 -2.8731346875e-18
          -2.8832335324e-18 -2.8784525372e-18 -2.8686189095e-18 -2.8725115739e-18 -2.8593612859e-18 -2.8727666139e-18
          -2.8772209582e-18 -2.8893047767e-18 -2.8882002016e-18 -2.8881615715e-18 -2.8822817357e-18 -2.8734815847e-18
          -2.8805745343e-18 -2.8791568937e-18 -2.8655029911e-18 -2.8868402874e-18 -2.8806042972e-18 -2.9064787663e-18
          -2.9079093224e-18 -2.9104238315e-18 -2.9111752265e-18 -2.913177191e-18 -2.9250232726e-18 -2.9268430343e-18
          -2.9267474129e-18 -2.9263602076e-18 -2.9257810855e-18 -2.9286421558e-18 -2.927721869e-18 -2.9301457591e-18
          -2.9194054681e-18 -2.9326203413e-18 -2.9382106257e-18 -2.9403401152e-18 -2.9465588436e-18 -2.9562246174e-18
          -2.9627631322e-18 -2.9655890172e-18 -2.96964644e-18 -1.6062247694e-17 -1.6047085379e-17 -1.6041121628e-17
          -1.6024911233e-17 -1.5999536399e-17 -1.5989776717e-17 -1.5987256107e-17 -1.5984102234e-17 -1.5961018427e-17
          -1.5948764314e-17 -1.593853639e-17 -1.5924811966e-17 -1.5876799516e-17 -1.5806904517e-17 -1.5815509348e-17
          -1.5828418516e-17 -1.5841486084e-17 -1.5832427928e-17 -1.5796282627e-17 -1.5780034413e-17 -1.5760048034e-17
          -1.5727661256e-17 -1.567833484e-17 -1.5651244174e-17 -1.5543369503e-17 -1.5588451268e-17 -1.5502078923e-17
          -1.5587092971e-17 -1.5561276988e-17 -1.5587876552e-17 -1.5587430874e-17 -1.5590666986e-17 -1.5566065376e-17
          -1.5555929996e-17 -1.5538681014e-17 -1.5506910998e-17 -1.5435827786e-17 -1.5302266384e-17 -1.5026756893e-17
          -1.4260130713e-17 -1.2228892396e-17 -7.3403439372e-18 9.4794648121e-18 6.4897567834e-17 1.7970298058e-16
          4.8877460295e-16 1.6169699609e-15 5.1077861346e-15 1.4521669246e-14 4.4928054968e-14 1.4395370496e-13
          4.2969701917e-13 1.2281426577e-12 3.1809464323e-12 9.2034661741e-12 2.2605419894e-11 5.4579893332e-11
          1.6609492754e-10 4.1216682085e-10 1.1654798626e-09 3.6219434309e-09 9.8651244753e-09 2.7616029029e-08
          8.1192183678e-08 2.1048265532e-07 6.1830704725e-07 2.0765689141e-06 5.7111112549e-06 1.4558822996e-05
          4.2236290261e-05 0.00012531782292 0.00035318359286 0.0009342808728 0.0025547779248 0.0068833751968
          0.018602075185 0.05430072511 0.47342492459 0.63052486983 0.78808933892 0.88348148671
          0.94566054797 0.97501064983 0.98877212595 0.99748502726 0.9990447781 0.99947808781
          0.99981524754 0.9999455366 0.99997834309 0.99998809672 0.99999639737 0.9999984306
          0.99999945276 0.99999976228 0.999999898 0.99999997029 0.99999998857 0.99999999619
          0.99999999862 0.99999999942 0.99999999975 0.9999999999 0.99999999996 0.99999999999
          -1.0123627985e-16 -1.2616041365e-16 -8.8095835838e-17 3.7202168985e-10 -1.8288640852e-17 -5.0465693237e-17
          -1.6245281341e-17 9.9785393489e-13 2.4859111918e-16 1.8908673117e-09 -6.640163213e-18 1.335262393e-11
          -1.1970704481e-16 8.7385544136e-11 -1.3283615728e-16 -0.00013382142832 -6.6970179118e-18 1.6288961679e-09
          0.093979581911 -6.8382000932e-18 1.3061106811e-08 1.1495726627e-08 -1.3333903423e-16 0.1460434859
          -1.2804583537e-17 -1.2799536611e-16 5.428918748e-07 -4.6923905885e-17 0.28093385022 -6.488668896e-17
          -2.1809915534e-17 0.00021039431953 0.15744628503 -7.8279704034e-17 1.9456464346e-08 -9.7659976083e-17
          0.62403620818 -3.5686987127e-17 -2.5159448676e-17 0.74799570096 0.00030740653275 -5.9155950459e-17
          0.93936722932 -1.2476774732e-16 -9.4698946711e-17 0.93381326578 -7.8080626241e-18 2.4393237056e-06
          -1.0610743339e-16 0.98217536559 -8.4003911122e-17 3.2092725311e-05 -2.3246928737e-17 -7.0310902488e-17
          0.99768440916 0.00048165224566 -1.3541631254e-17 -6.5312081802e-17 0.00040037413128 0.99999901345
          -1.7987452287e-17 0.99999779096 -4.0231109468e-18 0.99999889004 -3.4435774238e-17 0.99999999535
          -7.7187556159e-18 -4.2270132105e-17 -7.5383977794e-18 0.0057916559039 0.99999999905 0.056298742903
          -2.4492431116e-17 0.99999999951 -5.8808179157e-18 -1.9977831121e-17 0.032339702191 0.99999999991
          -2.239522871e-17 -4.4887489351e-18 0.99999999997 -1.9611989357e-17 0.99999999998 0.99999999999
          -3.353742466e-18 -8.4638625087e-17 -1.98234393e-17 1.0417274791e-11 -2.1259973252e-10 -2.6879628087e-17
          1.233251813e-16 -7.5636783546e-17 -1.8556359997e-17 -2.653667553e-17 -9.7804226437e-18 6.0099308596e-17
          2.0268482959e-07 -2.5426111728e-17 -0.00012508808803 -3.2794556127e-17 8.9837861521e-16 7.610223214e-06
          5.0518050573e-17 5.4435492027e-16 -2.3151198631e-17 -1.0194944001e-16 -2.1987375628e-17 2.6817416085e-12
          1.6291555102e-16 6.2330035653e-05 2.780567251e-17 -1.1927812473e-16 -2.2839261643e-17 1.787556303e-18
          -6.4483052574e-17 7.9131566444e-14 2.5710236786e-15 0.0016367417981 2.2322547198e-16 7.0593096769e-06
          -3.5724664785e-17 1.3929459292e-13 -2.3871142361e-17 2.1090722658e-12 -5.3795878983e-17 7.468248897e-16
          1.0191850575e-16 9.3474966578e-13 -2.3805835103e-17 -5.3669110088e-17 -3.3051158885e-17 1.2666350791e-11
          -2.8921945827e-17 4.6344094837e-10 -4.1978761091e-17 0.72131486271 -7.119893843e-17 0.89510003141
          -5.3201576117e-17 0.98292678197 0.048080344162 -4.4323534895e-05 -1.5724740446e-17 -4.4088063831e-18
          -6.6118372006e-09 -3.4547786171e-18 0.99995385734 -1.3124195909e-16 0.0051879808888 -1.0309556075e-16
          3.2937084355e-14 0.48266256204 0.99986664089 -2.2511873708e-17 7.2779665104e-07 -4.4872930552e-18
          6.4353851717e-11 1.7984189453e-16 -6.8776014309e-18 -2.2831071425e-09 2.4633738631e-06 -1.2103408798e-16
          2.3379169527e-16 0.99492409054 0.014221651858 0.04929261603 -4.7434627146e-17 -6.4729718018e-18
          -2.729401659e-17 -1.2810752369e-16 -4.441475531e-17 -6.4634602581e-18 4.0443424895e-10 -4.3746322819e-18
          0.9999863348 -1.2554798832e-16 0.8923168574 0.99971594256 -3.6131532975e-17 -9.1205170437e-17
          2.0134762071e-16 -3.2260339483e-18 0.0018280299553 3.6498688701e-09 6.5818818528e-07 -1.2062571995e-17
          0.99974391787 -7.8996638983e-17 0.99999874484 -1.1808170697e-16 -1.88763285e-17 1.2205115552e-06
          -2.8427130827e-17 1.4807967995e-07 9.5543400318e-06 -8.0404254571e-17 -9.4921109544e-17 3.1498868778e-09
          -3.594433936e-18 -1.3269367902e-16 -6.4044471859e-17 0.1081742241 -3.2395589736e-17 6.2170326071e-05
          0.02514891334 -5.3791848738e-18 -7.6454794271e-17 -3.2370438836e-18 -3.5148495529e-17 -2.0475404424e-17
          0.96231604634 -8.572964409e-17 0.0091544424691 1.309594028e-05 -2.692973537e-17 0.00040409572949
          -3.0246024143e-17 -6.4915448475e-17 0.99999709624 -1.9911405835e-17 -6.1345815147e-17 -3.1677849846e-17
          -1.8225316759e-17 -1.4106859153e-17 -3.7009864731e-18 -1.1297299805e-05 1.2473208084e-07 -1.0593414526e-17
          -2.2756655963e-17 -3.5534444798e-18 0.033386245237 0.014213477331 -7.9771662255e-18 -2.1836277844e-17
          -8.708692812e-18 0.046034634577 -3.5842769969e-18 -8.7887181482e-05 3.5090582167e-08 4.0704076412e-09
          -1.1685718359e-16 -2.393670949e-17 0.9999998288 7.3559375741e-06 -3.9119632425e-17 -3.1289141887e-17
          -3.8322875202e-18 7.1011381645e-06 0.23502675618 -9.2624840417e-18 5.5073878123e-07 -1.1800224802e-17
          -3.3059474788e-18 0.50468441901 0.98738036248 0.00012193036595 -5.9143163173e-18 -1.7924066922e-17
          -9.5373190244e-18 0.79079345763 -1.3167727537e-17 -1.8642030336e-17 -8.3238584311e-17 0.99999999039
          -3.3469499524e-18 0.00065050446553 -3.9206678209e-17 0.00011342966333 6.4642844642e-05 -1.3457072539e-16
          -1.8123288695e-17 0.9999544497 0.99999999729 -3.495914011e-18 -2.6341380019e-17 -6.0777765253e-18
          0.99999985552 2.1946036578e-07 0.0002768622721 -1.3420839724e-16 0.10770702729 -5.1182654078e-17
          3.0904821691e-05 -3.2817656143e-18 -1.8589724702e-05 -5.3259842429e-18 -4.7999171444e-17 0.40602517051
          0.0076537331392 0.61791916735 0.0066870324727 -3.619581303e-17 -2.2320484209e-17 0.013077185254
          0.99999999919 0.01664188286 -9.3572985068e-18 2.6895514804e-08 0.99999999662 0.3716325809
          -5.9726571985e-17 0.00062270269342 -2.9634473304e-17 -3.082019399e-18 0.99999999962 -1.7613598085e-17
          0.81453368872 0.99999997476 0.99999999994 -2.6245705203e-17 0.99999997994 0.37179950793
          0.99999999987 0.034914158953 0.99999999898 -4.7887154282e-18 -4.7886794122e-17 0.066328280173
          -1.7721300006e-17 0.9999996291 -2.0602388919e-17 0.01245247955 0.0016389249732 0.99999999998
          -5.045214588e-17 0.99999999905 1.4414352577e-07 -1.2906317427e-16 0.99999679348 0.99999999894
          -4.4887078207e-17 -5.5313659736e-18 0.0018302728778 -1.7235965195e-17 -5.1211360603e-17 0.44335019272
          -4.7030399727e-18 0.070949655052 0.001758607731 0.999987305 0.99999999795 0.9999999999
          -1.7931521104e-17 -2.4011162602e-17 0.0034082387317 -1.0302572741e-17 -3.3475950575e-18 7.0995992969e-10
          3.7553262231e-11 1.5824976457e-08 9.7974643238e-10 9.596080162e-13 -1.3279309593e-16 -3.8352034505e-18
          0.17744953587 0.99999996167 0.87873624869 -2.0086283073e-17 0.40247639428 0.99994515281
          -1.1662706044e-16 -1.2353811178e-16 -1.0959015629e-16 -1.3388749254e-16 -5.2371505484e-12 1.7063357606e-17
          3.9330023356e-14 -8.1391997662e-17 2.4137911736e-16 -1.2276409284e-16 1.2952648159e-06 -5.3982210109e-17
          -2.7563873969e-17 -4.0619622617e-17 4.255225102e-16 1.0395138541e-16 8.5908277029e-16 -1.3978509397e-16
          -8.3873979751e-17 3.562549311e-16 -8.7590162687e-17 -8.7181249077e-05 4.2361245448e-16 3.0027179038e-09
          -3.8844226872e-17 -9.8669170067e-17 1.8772787136e-11 2.5940901064e-17 1.5256609479e-13 -1.229217792e-16
          2.3884009238e-08 4.0421899202e-16 -1.1614984071e-16 -3.8813473845e-16 -9.9698091387e-13 1.3295300435e-15
          1.6645174759e-15 0.00049523023746 -1.2238425192e-16 -1.1968306782e-16 7.6422697695e-16 1.2988647963e-07
          -5.0820341523e-17 -7.4766673216e-17 -5.8365387484e-18 -1.1605290223e-16 1.3371379788e-15 7.4954231562e-16
          -3.1872204157e-05 0.055544985122 1.2569786829e-16 -8.8053593694e-11 -3.5080749394e-10 -4.8789597526e-18
          -1.622336697e-05 -1.1033371729e-16 1.3119487362e-15 -1.2304059472e-16 -6.7202088423e-18 4.932142936e-17
          -6.2798839234e-18 2.9092931026e-13 0.0030152880729 -6.2893393744e-17 1.3839249657e-16 1.9806862801e-10
          4.0238574379e-15 -2.0822420262e-17 -1.6133981634e-10 -4.8468352248e-17 -7.1872492848e-17 0.01520836269
          -8.9179914696e-17 -1.9501961852e-16 -5.0517978114e-18 9.4985381009e-17 -1.6966638471e-17 0.20788230969
          6.8914609324e-14 -2.1712166373e-17 -2.2725677997e-17 -5.1773310874e-17 -3.3623783103e-17 -1.0003827786e-16
          1.39356674e-13 -1.1366889551e-16 0.0013359295241 2.1250842532e-14 5.588377792e-15 -1.1809577852e-16
          1.0098337264e-11 -2.7970872166e-17 -1.0619402607e-14 -4.1167253548e-18 -9.437891663e-18 -1.1985239799e-16
          -2.2503415573e-11 -9.503689726e-17 -1.1040813478e-16 -1.2795466714e-16 -1.2367310041e-16 -3.3999715107e-17
          3.2297148498e-07 -6.8584222064e-17 5.8547814095e-13 1.3451843167e-14 -6.1963834589e-17 -7.8247359653e-18
          8.4318402146e-14 9.0569709074e-16 -9.4564722248e-17 -3.0130711139e-17 8.8149588123e-14 -3.0936600814e-17
          -1.1600934378e-16 4.3259139129e-08 -5.0680836225e-18 -8.3095755754e-17 -5.6408818598e-08 -1.239414362e-16
          -3.8831281208e-17 0.038209777895 -5.0286110424e-17 1.1662308868e-15 -1.2202725309e-16 -0.00036643686293
          -2.0436984791e-17 3.2854925834e-10 -6.6039631083e-17 3.8280798505e-11 1.5145888265e-15 1.8478548833e-06
          -6.9898559856e-18 -9.1550023592e-17 1.2012993684e-09 -8.1567054955e-17 0.016952646379 2.1015353735e-12
          3.04108867e-13 -8.7676518306e-18 -1.3139355566e-16 -5.996143563e-17 -1.9395592147e-17 -1.963069749e-17
          -8.5485282909e-17 5.048409683e-13 0.39224613393 -1.5891976472e-17 1.4223062661e-17 0.010588794135
          1.1616355723e-10 0.054372503562 0.60740650812 -1.0041378914e-17 1.5179940449e-16 0.069713405519
          4.1181297075e-16 -0.00025098706785 -7.6556685012e-17 5.5950031961e-13 1.2861206388e-11 -9.8342365815e-17
          -1.9498292316e-17 4.9893832111e-12 -4.8866602561e-17 -1.1760908915e-16 -4.3807046026e-17 -4.4170550309e-17
          -5.0717798622e-17 0.79227955318 0.53579918183 0.75030913575 -3.7778469313e-07 -1.0188012192e-16
          -1.3649789972e-16 0.63738156982 6.4161609315e-18 7.0735190196e-09 -1.081525028e-17 3.828190914e-16
          -9.2326906149e-17 1.1410067756e-16 0.026035967253 -1.7024435764e-17 0.99999692016 0.99502673153
          5.2755997697e-09 -3.8328160371e-18 -3.6114327848e-17 1.7479981612e-16 -1.9956571112e-17 0.29186356345
          -9.1538779654e-18 5.7372070862e-17 -1.1706419647e-17 1.246572924e-11 0.25416740106 -6.8168523674e-18
          -5.769379839e-17 1.6553280955e-09 -4.9158934279e-17 0.069352520331 6.3822222676e-10 0.0082916529311
          -5.9524039205e-17 -1.2586661899e-16 0.99999395996 0.0023840735632 -2.2422256899e-17 -3.360400932e-17
          -3.8668210769e-17 -2.7141498516e-17 0.99997622517 1.7489107791e-07 2.3060053416e-15 2.2897366986e-17
          -4.1102001878e-17 -1.2342221966e-16 1.2588379603e-14 -5.4161196703e-17 0.013169928664 -2.2450448683e-17
          0.25378026502 -1.5953511257e-17 -1.9880392967e-06 -7.6882987677e-18 -1.2220826811e-16 0.34875058538
          -2.0962180312e-17 0.0022002778106 0.00051310109073 2.2946245428e-17 2.0586348804e-05 -1.3554418946e-16
          0.9878444091 6.1169698094e-18 -2.2189883746e-17 -3.1081872016e-17 -8.082286119e-17 -3.2184993391e-18
          0.00022523496755 -4.1596518256e-18 -1.25083539e-06 -6.7406945386e-17 0.90382093693 0.047130700256
          -5.923569525e-17 -2.03391419e-17 0.99746953453 7.9250858129e-16 1.5337627004e-05 -3.1960431567e-17
          0.062319692586 0.0014027349337 0.2917201029 5.4091946763e-16 1.1398821298e-16 -3.2820556126e-18
          0.96228199966 0.29168364775 -2.7155510421e-17 -1.0602587105e-17 -4.4502789658e-18 -1.0781721808e-17
          3.0311227541e-06 2.5439733617e-07 -5.7659152868e-17 0.99788537204 0.31173207217 -1.7023905307e-17
          -5.0469333122e-17 0.99881281836 -6.4657214235e-18 -1.1682898606e-16 2.4899889682e-17 9.6032991124e-16
          7.6546472041e-08 -2.8770796543e-17 -2.936812834e-17 3.3874644542e-11 -4.8657208308e-18 -3.2774387236e-18
          -4.8686946459e-18 0.00029900729245 0.99999677373 -8.9576930473e-17 -1.0141268686e-16 0.9396254697
          -8.7839782526e-17 -3.3540249923e-17 -1.1069277522e-16 0.0014395702378 0.25780837238 -7.6875054359e-17
          -9.5964812614e-18 0.43116888177 0.64343185135 0.077722888731 -1.1714625419e-16 0.93316463464
          2.8181332051e-09 0.80921749329 2.7545832804e-06 1.4035724022e-15 -4.1723203409e-18 -2.5590855016e-05
          0.99935212532 0.48877355164 3.4671745616e-16 0.98651736717 -1.7679934539e-17 0.8309194513
          0.99974858893 -1.1315770122e-16 0.99999423231 -1.7116755617e-17 0.9999481742 -5.0513447964e-18
          -8.308991494e-17 -5.4192372259e-11 -7.2441384208e-17 7.5075789743e-06 -2.2462850601e-18 4.0482309401e-06
          7.1495651842e-05 5.6691940768e-10 1.1531629006e-16 3.7420526651e-15 -1.0719292367e-17 0.98009863167
          -1.7908825837e-17 0.0012277902967 9.0130165773e-10 -7.1283266203e-17 7.3587904324e-11 -1.5664562577e-17
          1.4427837444e-05 -2.5584235459e-17 5.2980400499e-07 -2.936036411e-17 -2.4381987351e-08 -2.3435885061e-17
          -9.0149846885e-18 0.18303448184 -3.2905023157e-06 1.2183288171e-05 -1.2594233656e-16 9.0018474838e-12
          -1.790557282e-06 1.643651249e-10 0.0031590637576 -1.0143557352e-16 -1.4254682312e-17 0.64184029921
          -2.9572540928e-17 0.13914754935 -9.1921766681e-18 8.5154059616e-17 0.99999534156 -1.0335259503e-16
          -1.3724881503e-17 0.00016345677744 0.99925301189 0.64947896671 0.97701332793 -2.0219964945e-17
          0.320614722 1.9922066962e-16 0.9734934445 5.2123869441e-07 0.00093252152553 -0.00018262747493
          -5.4575673921e-17 3.1419020199e-14 -1.8322845009e-17 6.0940336729e-09 -5.490277638e-17 3.7196477684e-09
          -1.3440937439e-16 0.012016575656 1.7192890515e-06 0.9999991265 0.34119727636 -1.7119151519e-17
          -7.153644442e-17 2.0338897539e-05 0.85227043834 0.76710472702 2.0199813943e-12 0.99502736511
          -0.00083688675676 -4.264328257e-18 2.3257011942e-16 0.051945937687 0.019164642751 -4.1310084227e-18
          -9.5303847722e-17 0.0002008190904 -1.3429633269e-16 2.8638485438e-08 -4.3163924526e-18 -0.00030441397976
          -4.0005731074e-17 -4.1559318284e-17 -3.7663102722e-17 5.4381139157e-06 -1.6400612881e-17 0.99998816772
          -6.4807791436e-18 1.6053498958e-13 5.7654827585e-06 1.5711240055e-07 -3.455116275e-18 -1.6839575852e-17
          0.99996776988 -5.5209531818e-17 1.065756043e-15 -1.7777346137e-17 -3.4194251138e-18 -9.1873588841e-18
          0.9853743522 -2.2681685468e-17 -8.8974443477e-17 0.9996351357 3.9039244652e-09 -7.4570603513e-18
          7.4951515656e-07 -4.3194328319e-18 -2.1347151081e-05 0.99996394784 -3.8682504522e-18 0.98507359688
          -1.3178104536e-16 -5.5099282837e-17 -1.8587015464e-17 -1.9376620595e-17 -3.5620717574e-17 -3.405475025e-17
          4.5660346393e-05 -6.3720851865e-17 1.0222056771e-06 -6.6560024572e-17 0.96097428283 0.63539989639
          0.60053939058 8.9116435263e-09 -1.2036309564e-16 -6.6234881612e-17 0.44057052288 -7.7638696292e-18
          -1.0296177526e-17 -4.8714167603e-18 -3.1442093191e-18 -4.9384798527e-18 0.99999945281 -4.8096970142e-17
          -7.8313542244e-17 -5.8746409813e-18 0.00038687601336 4.6498767206e-09 -3.1224535137e-17 0.82874664645
          -2.7131240744e-17 -8.4301533376e-17 -3.4133540773e-18 -1.2589290485e-17 -1.6528740554e-17 0.99992346076
          4.9918273414e-12 -1.0490923244e-16 2.0247835026e-09 -2.2244134209e-17 -1.0538515857e-16 -3.1411570969e-18
          0.0074649310364 0.98513642266 -1.1363544629e-16 -1.1940185501e-16 -1.1036581506e-16 -1.548482679e-17
          -7.017503066e-17 -1.108161993e-16 -1.217086704e-16 0.34548021152 -7.3394916265e-17 1.5477796379e-06
          -3.7504998419e-17 -7.6303142221e-18 0.99990687166 -9.081384391e-17 0.99999956622 -1.1722991189e-16
          -3.2874929938e-17 0.8392257707 -2.3345271134e-17 -2.0437374528e-17 -0.00019590935653 -3.3637547284e-18
          -5.719880634e-17 0.99990180852 -1.9592860975e-17 -4.7279539355e-17 -5.2263050715e-18 -5.9363262442e-18
          -1.3986270866e-16 0.00021508877197 0.92796633575 0.64436462059 -1.9838105458e-17 0.99376618221
          0.20020098333 -1.2263839262e-16 1.7848083886e-05 -3.5314960144e-17 0.022168110426 -3.0566069607e-18
          0.0047146229323 0.63640318081 -1.8279681335e-17 -5.6638991165e-17 -7.261531611e-17 -1.0022796622e-16
          -1.2779866919e-17 3.9323981172e-16 -1.2385427652e-17 3.8685320335e-07 -6.5864327388e-18 -1.9907234054e-17
          -1.2981809709e-16 -2.4067682824e-17 6.2516636411e-17 -1.1817304681e-16 -3.1753177061e-17 0.25686500722
          0.99999984447 -3.6062744563e-18 2.2778630273e-06 -2.8312268445e-17 -3.134889829e-18 -4.0416309221e-18
          2.3903032258e-06 -1.1434766987e-16 -5.2122238764e-18 -2.5365981909e-17 -5.5096048674e-17 3.8262260237e-16
          -0.00048233961054 -4.1811723952e-18 -4.3833305846e-17 1.032979054e-06 -3.4978007815e-17 -3.9351001579e-17
          2.2738560129e-08 -8.4927047107e-17 -1.4415466031e-17 0.0056144214649 -3.5111219432e-18 4.3819822964e-16
          0.046228555986 -3.109610514e-17 0.28999089181 0.024351814459 -3.0386277523e-18 -4.0382318512e-17
          -6.1417700872e-17 1.0974643406e-05 -2.6733871073e-17 -1.8127998618e-17 -1.5352368353e-17 8.4457045681e-05
          -7.2676815274e-05 5.4793541329e-06 -1.2627992427e-17 2.4625440763e-07 2.1162071243e-16 0.00051205761128
          -5.4537518966e-18 -5.4635421227e-17 -3.107992085e-17 -6.5886554962e-18 -2.1699115733e-17 -2.3167743062e-17
          -5.2167229238e-17 -3.0630364695e-17 0.0070665310491 -2.6153536641e-17 0.39629683984 -1.0098145812e-17