<VTKFile type="UnstructuredGrid" version="1.0" byte_order="LittleEndian" header_type="UInt64">
  <UnstructuredGrid>
    <Piece NumberOfPoints="409" NumberOfCells="736">
      <PointData>
        <DataArray type="Float64" Name="pressure_ref" format="ascii" RangeMin="100000" RangeMax="109925.31755">
          100000 100000 103507.04639 100000 106480.40012 100000
          109925.31755 102967.93713 109898.02864 105436.96951 109877.67156 108391.15184
          109865.61387 109864.10822 100000 100000 100000 100000
          100000 100000 100352.59563 100705.90375 101059.97871 101414.98697
          101770.58559 102126.79084 102482.72452 102837.47373 103008.91361 102510.53083
          102011.2156 101510.53058 101008.75661 100505.29855 100000 100000
          100000 100000 100000 100350.59102 100701.44436 101052.58647
          101404.05337 101755.89676 102108.06942 102460.62962 102813.53561 103166.7316
          103520.32961 103874.09812 104228.21439 104582.48186 104936.95499 105291.09585
          105644.41909 105996.4174 105986.3074 105491.80218 104996.51904 104500.61759
          104004.09107 100000 100000 100000 100000 100000
          100000 100349.90503 100699.8321 101049.79976 101399.83004 101749.95118
          102100.16106 102450.49291 102800.95602 103151.58577 103502.34504 103853.26161
          104204.36599 104555.59701 104906.99574 105258.57062 105610.26623 105962.09146
          106314.00455 106666.03621 107018.15801 107370.32808 107722.57125 108074.87967
          108427.16138 108779.24461 109130.01159 109479.37884 109434.45 108943.29176
          108451.51677 107959.35059 107466.77643 106973.81851 100494.82725 100989.62695
          101484.3603 101979.01546 102473.54688 103317.48609 103667.02645 104016.61418
          104366.23037 104715.9159 105065.66338 105415.49367 105765.36064 106115.30166
          106465.32701 106815.42162 107165.581 107515.82485 107866.08973 108216.41229
          108566.75383 108917.17271 109267.60981 109903.34562 109909.12602 109915.3613
          109921.38161 109924.58835 103462.16196 103956.19956 104450.00945 104943.60573
          105785.74589 106134.50592 106483.28743 106832.10953 107180.97778 107529.83177
          107878.73349 108227.64728 108576.57389 108925.57441 109274.58142 109880.94181
          109884.6079 109888.68224 109893.16115 105930.05555 106422.86928 106915.3747
          107407.62238 107899.54368 108738.67873 109086.1837 109433.72198 109866.75441
          109868.21833 109870.04281 109872.22571 109874.76776 108882.4439 109373.43847
          109864.27924 109864.76591 100911.64582 102795.27735 101101.01221 105560.59783
          101703.81386 109474.44717 109369.08626 101264.5618 100495.0198 100529.37376
          100686.54951 100538.98219 100434.44431 100660.29526 102326.53805 100508.54749
          101179.43855 101235.77936 101732.75566 101864.293 101370.32298 100985.09401
          101281.9111 101874.49366 102269.29056 100963.98064 100579.84 101357.28183
          100612.22067 102714.60152 100438.64459 103762.28988 101912.24264 103644.02028
          103376.77655 102149.75335 103887.79143 103353.07992 103741.1313 100846.93241
          100740.13204 104412.65841 101585.37971 102638.55011 104769.52821 105329.20781
          103074.58076 104311.61562 104410.06412 105012.23276 104312.31623 104244.82659
          103411.62076 101165.03393 101671.84433 102140.67104 100356.2723 102622.24469
          103093.14745 104161.73998 100981.25606 103665.9423 101871.98891 101179.39888
          105125.46004 102833.41332 102649.12015 104844.99633 103211.33774 103961.81854
          102444.39119 105679.06959 103819.04598 104579.61925 102576.78897 105550.24111
          105020.07572 104736.15743 105851.5902 105479.95776 104009.01998 106602.87902
          102776.88015 103473.83771 105314.33197 105295.04327 104402.7519 105158.50706
          107296.23977 106222.85291 105568.24136 106181.99053 105861.24599 106715.44357
          106979.49985 107583.02566 107155.77573 108256.78533 108393.04723 108969.50805
          108806.90568 109417.37276 109359.29224 108254.24364 107558.63196 101437.79747
          101847.96402 102297.07427 105233.53177 103994.84072 103196.04853 106308.81328
          105154.97239 103863.84711 106782.80417 105845.12796 105679.10564 106200.76035
          106432.00994 106785.90468 106642.97093 106632.12771 105228.76164 105954.80987
          107703.39164 105679.42939 106660.49343 108191.69815 107345.77997 107858.90726
          107331.50298 107605.98673 108368.61766 108837.52236 108065.69873 108016.8911
          109417.2476 108743.30628 109449.23137 104592.87908 106414.50787 106148.81261
          107300.63216 107323.72954 107017.50183 108191.82832 107609.92458 108250.53224
          109159.36024 108870.54135 109405.61623 108077.465 108666.92611 109404.25855
          106867.89653 107269.90629 107738.85178 108055.74156 108775.43379 109399.93387
          109505.15132 102932.97704 101978.09828 100925.63097 100420.99768 101398.3207
          102430.48152 103705.99263 104896.96816 100728.19044 102158.12213 103160.46949
          104018.57199 104657.14004 102268.92045 103377.29287 105212.50688 104429.77512
          103612.27165 106822.83472 106139.7428 108911.71219 107835.73092 104899.61039
          103497.15985 106424.93587 105270.02969 105510.18833 107835.91157 108053.90589
          107699.82553 109027.83769 109410.65266 107671.27286 105972.49739 101842.15651
          109130.49298 100800.52648 101509.90466 101637.38159 101548.76968 102382.11514
          102162.78065 103179.75227 103091.11904 104175.43699 103317.22979 103108.8893
          104257.72561 103558.05353 102685.42945 102985.95625 104720.3341 104131.13588
          102046.88698 106768.49645 104662.54978 105116.07276 106467.71313 105788.22377
          102335.94841 107086.80494 107681.96863 106336.12469 107192.49214 108485.80543
          107155.67532 105791.79557 107175.13699 105946.71461 106298.1043 107155.33387
          108555.35844 108422.50618 109028.39458 106983.68027 108490.40529 107750.346
          108932.83537 109031.39049 101649.84606 107517.60648 102805.58698 105312.92566
          108566.90141
        </DataArray>
        <DataArray type="Float64" Name="temperature_ref" format="ascii" RangeMin="292.28366214" RangeMax="373">
          373 292.99946092 373 292.99999997 373 293
          373 293 293.00073502 293 293.00000329 293
          293 293 325.51516912 298.94624297 292.81655793 292.83243809
          293.00476496 293.00274294 293.00135423 293.01299458 293.00975777 292.83708951
          292.55527744 292.93172246 298.77275355 313.57231562 373 373
          373 373 373 373 293.00013422 292.99999139
          292.99999272 293.00000139 293.00000003 292.99999975 293.00000064 293.00000037
          292.99997845 293.00002375 293.00011767 292.99990204 292.99773016 292.99802592
          293.01257618 293.03819773 292.93092087 292.72146588 292.60936089 295.88376558
          305.82016835 324.6251301 373 373 373 373
          373 293.00000002 292.99999999 293 293 293
          293 293 293 293 293 293
          293 293.00000001 293.00000003 292.99999984 292.99999959 292.99999989
          293.00000195 292.99999804 292.99998167 292.9999951 293.00005264 293.00016702
          292.99819932 292.99766374 293.00938901 293.02395393 292.86499532 292.3483232
          293.02948159 295.38491379 307.21836324 328.02935215 373 373
          373 373 373 373 293 293
          293 293 293 293 293 293
          293 293 293 292.99999999 293.00000003 293.00000002
          292.99999961 293.00000052 293.00000466 292.99999496 292.99997267 293.00004977
          293.00029206 292.99989225 292.99891837 293.00921153 292.90263822 293.0655399
          298.85483968 326.34159508 293 293 293 293
          293 293 293 293 293 293
          293 293.00000003 292.99999996 292.99999959 293.0000005 292.9999885
          292.99998329 293.00028383 292.99975885 293 293 293
          293 293 293 293 293 293
          293 293.00000008 292.99999964 292.99999979 293 293
          293 293 293.7956912 292.9006953 292.99974193 293.02252622
          292.99999982 293.00438392 292.99999969 292.61520771 292.9699786 292.99929367
          292.65530255 295.21413297 292.99998557 318.30399609 327.92081388 293.00000003
          300.55003479 293.00011577 293.00003783 308.87698407 331.75433857 292.9975769
          293.02806149 293.03244881 292.62728898 292.99999997 293.00015075 293.00000001
          293 292.28366214 293 294.6970203 293.00775842 292.99998553
          292.99951525 292.99781256 318.79676398 293.00254916 292.56463094 293
          293.00000001 298.22080494 293.00000142 292.9999999 325.63244648 328.571392
          293.00000063 292.99998488 293.00014944 301.88999339 330.10991471 292.61917438
          313.2464064 293.0000001 292.99999097 293.00000056 293 292.9999769
          293.00030534 292.99871073 293 292.99873119 293 293
          292.99812211 293 293 293.03216509 293 292.99999999
          292.99999999 292.99842273 293.00000007 293 293.0000022 292.6983578
          292.99999982 293.00000049 295.2634838 292.99999986 293.00007562 325.084168
          293 293 293.00301145 293.00010176 293 293.00000004
          296.35311435 293.0282583 292.9999999 292.99999946 292.91211027 292.64653824
          292.99997187 292.99979365 323.59320917 315.07963248 292.99809747 292.95013109
          325.21306484 292.77582385 293.99192037 295.17682376 292.39198471 293
          293 293 293.00000398 293 293 293.00000141
          293 293 293.00013081 293 293 293.00012309
          293 293 292.99989504 293.00000005 293 292.99999958
          293.00013149 293 293.00000193 293.00722425 293 292.99999985
          292.99998041 293.00852201 292.99999979 292.99997502 293.00007234 293.04728231
          293.00020004 292.99763801 293.00498449 293 293 293
          293 292.99999986 293 293 293.00000253 293
          293 293.00000001 293.00000002 293.00000423 293.00000213 292.99997937
          293 293 293 293 293 292.99999999
          293 293.02468153 293.00000001 292.99998396 293.00000004 292.99999993
          293.02175968 292.99999424 293.00015909 292.99999982 292.99998316 292.99998153
          292.99965046 292.99907236 293 293.00000003 292.88609507 292.9999997
          293.00013266 300.93452347 292.50524022 292.54553814 295.13270232 293
          293 292.99996714 293 293 292.99753086 292.99999986
          293.00000004 293.00000003 292.99999988 293 293.00143641 293.00000002
          293.00054545 293.000021 293.01116206 294.95205259 292.99801143 293.0084892
          292.99999982 292.70146586 296.46597663 292.99999733 292.75587106 292.9999989
          293.02428204 293.00000223 293.00009454 293 293.00179885 293
          293.0000002 293.02900234 293.00000004 293.00000036 292.85726979 292.99997242
          293 292.85801674 319.48783749 297.84031156 292.99700414 292.81404281
          292.82869206 293.00000372 293.00039691 293 293.00000001 293.00000004
          293.03140453 292.99998739 293.00014075 292.99999979 292.99999999 293
          292.99999944 293.01505795 293 292.99999987 293.00178897 292.99999115
          293
        </DataArray>
      </PointData>
      <CellData>
      </CellData>
      <Points>
        <DataArray type="Float64" Name="Points" NumberOfComponents="3" format="ascii" RangeMin="0" RangeMax="1.4142135624">
          0 1 0 0.35 1 0
          0 0.65 0 0.65 1 0
          0 0.35 0 1 1 0
          0 0 0 1 0.7 0
          0.3 0 0 1 0.45 0
          0.55 0 0 1 0.15 0
          0.85 0 0 1 0 0
          0.05 1 0 0.1 1 0
          0.15 1 0 0.2 1 0
          0.25 1 0 0.3 1 0
          0.3146447 0.9646447 0 0.2792893 0.9292893 0
          0.243934 0.893934 0 0.2085786 0.8585786 0
          0.1732233 0.8232233 0 0.137868 0.787868 0
          0.1025126 0.7525126 0 0.0671573 0.7171573 0
          0 0.7 0 0 0.75 0
          0 0.8 0 0 0.85 0
          0 0.9 0 0 0.95 0
          0.4 1 0 0.45 1 0
          0.5 1 0 0.55 1 0
          0.6 1 0 0.6146447 0.9646447 0
          0.5792893 0.9292893 0 0.543934 0.893934 0
          0.5085786 0.8585786 0 0.4732233 0.8232233 0
          0.437868 0.787868 0 0.4025126 0.7525126 0
          0.3671573 0.7171573 0 0.3318019 0.6818019 0
          0.2964466 0.6464466 0 0.2610913 0.6110913 0
          0.2257359 0.5757359 0 0.1903806 0.5403806 0
          0.1550253 0.5050253 0 0.1196699 0.4696699 0
          0.0843146 0.4343146 0 0.0489592 0.3989592 0
          0 0.4 0 0 0.45 0
          0 0.5 0 0 0.55 0
          0 0.6 0 0.7 1 0
          0.75 1 0 0.8 1 0
          0.85 1 0 0.9 1 0
          0.95 1 0 0.9646447 0.9646447 0
          0.9292893 0.9292893 0 0.893934 0.893934 0
          0.8585786 0.8585786 0 0.8232233 0.8232233 0
          0.787868 0.787868 0 0.7525126 0.7525126 0
          0.7171573 0.7171573 0 0.6818019 0.6818019 0
          0.6464466 0.6464466 0 0.6110913 0.6110913 0
          0.5757359 0.5757359 0 0.5403806 0.5403806 0
          0.5050253 0.5050253 0 0.4696699 0.4696699 0
          0.4343146 0.4343146 0 0.3989592 0.3989592 0
          0.3636039 0.3636039 0 0.3282486 0.3282486 0
          0.2928932 0.2928932 0 0.2575379 0.2575379 0
          0.2221825 0.2221825 0 0.1868272 0.1868272 0
          0.1514719 0.1514719 0 0.1161165 0.1161165 0
          0.0807612 0.0807612 0 0.0454058 0.0454058 0
          0 0.05 0 0 0.1 0
          0 0.15 0 0 0.2 0
          0 0.25 0 0 0.3 0
          1 0.95 0 1 0.9 0
          1 0.85 0 1 0.8 0
          1 0.75 0 0.9646447 0.6646447 0
          0.9292893 0.6292893 0 0.893934 0.593934 0
          0.8585786 0.5585786 0 0.8232233 0.5232233 0
          0.787868 0.487868 0 0.7525126 0.4525126 0
          0.7171573 0.4171573 0 0.6818019 0.3818019 0
          0.6464466 0.3464466 0 0.6110913 0.3110913 0
          0.5757359 0.2757359 0 0.5403806 0.2403806 0
          0.5050253 0.2050253 0 0.4696699 0.1696699 0
          0.4343146 0.1343146 0 0.3989592 0.0989592 0
          0.3636039 0.0636039 0 0.25 0 0
          0.2 0 0 0.15 0 0
          0.1 0 0 0.05 0 0
          1 0.65 0 1 0.6 0
          1 0.55 0 1 0.5 0
          0.9646447 0.4146447 0 0.9292893 0.3792893 0
          0.893934 0.343934 0 0.8585786 0.3085786 0
          0.8232233 0.2732233 0 0.787868 0.237868 0
          0.7525126 0.2025126 0 0.7171573 0.1671573 0
          0.6818019 0.1318019 0 0.6464466 0.0964466 0
          0.6110913 0.0610913 0 0.5 0 0
          0.45 0 0 0.4 0 0
          0.35 0 0 1 0.4 0
          1 0.35 0 1 0.3 0
          1 0.25 0 1 0.2 0
          0.9646447 0.1146447 0 0.9292893 0.0792893 0
          0.893934 0.043934 0 0.8 0 0
          0.75 0 0 0.7 0 0
          0.65 0 0 0.6 0 0
          1 0.1 0 1 0.05 0
          0.95 0 0 0.9 0 0
          0.1386669 0.9092954 0 0.2205733 0.7200281 0
          0.3892349 0.8893531 0 0.2592583 0.4408492 0
          0.6333525 0.8281123 0 0.2913113 0.0432503 0
          0.5339067 0.0519231 0 0.1572066 0.8739524 0
          0.2303477 0.9505107 0 0.3680229 0.9468328 0
          0.18322 0.931535 0 0.1191167 0.9465011 0
          0.4762052 0.9562708 0 0.0589619 0.934656 0
          0.0492148 0.7684091 0 0.5267881 0.9487694 0
          0.0960346 0.8828756 0 0.4467515 0.8756618 0
          0.4080503 0.8257591 0 0.0752094 0.8146083 0
          0.0430041 0.8640069 0 0.3282179 0.901156 0
          0.2700338 0.8715813 0 0.2496534 0.8122625 0
          0.1982172 0.773034 0 0.6812425 0.9027168 0
          0.4221482 0.9416942 0 0.7270401 0.8629713 0
          0.7849903 0.938174 0 0.1593176 0.7287129 0
          0.8901208 0.9556836 0 0.1225396 0.6237926 0
          0.313023 0.8081114 0 0.4673902 0.6328637 0
          0.3795328 0.6603266 0 0.3601709 0.784002 0
          0.0599259 0.6116388 0 0.2417766 0.6637427 0
          0.1936535 0.6251426 0 0.8409994 0.9144466 0
          0.7366589 0.9252781 0 0.1033596 0.5584904 0
          0.5812202 0.8401551 0 0.6354938 0.7337457 0
          0.049764 0.5228539 0 0.0460548 0.4663829 0
          0.6092419 0.6897809 0 0.4817512 0.5653562 0
          0.4234946 0.5557596 0 0.0930717 0.498102 0
          0.0450381 0.5689396 0 0.1607562 0.5747672 0
          0.0696486 0.6594735 0 0.6146411 0.8824994 0
          0.531203 0.8315392 0 0.604179 0.7840844 0
          0.8215747 0.9640157 0 0.5015985 0.7358056 0
          0.4256778 0.6886582 0 0.3322755 0.5814894 0
          0.9582188 0.9008483 0 0.3446878 0.6314028 0
          0.9450639 0.8108261 0 0.7915834 0.880886 0
          0.3481599 0.4840222 0 0.8735979 0.7136598 0
          0.8115653 0.7323571 0 0.2542368 0.5132128 0
          0.8264893 0.6754898 0 0.7621381 0.5996797 0
          0.6925395 0.7532306 0 0.3526508 0.4279887 0
          0.7059359 0.6142585 0 0.7333391 0.5372258 0
          0.566787 0.7401699 0 0.1652197 0.4429488 0
          0.6418205 0.4929314 0 0.5877922 0.5218918 0
          0.1167204 0.4130687 0 0.6087802 0.4464968 0
          0.436864 0.5961808 0 0.0504839 0.3375414 0
          0.943037 0.7193347 0 0.8742414 0.6488816 0
          0.3033058 0.4653218 0 0.3937728 0.4665112 0
          0.7944572 0.5549874 0 0.7003595 0.4787014 0
          0.1121696 0.2667937 0 0.2660756 0.373762 0
          0.6637159 0.4373237 0 0.5415754 0.3757087 0
          0.2138762 0.4109264 0 0.1527787 0.3251819 0
          0.5171731 0.294974 0 0.3972637 0.2345998 0
          0.0529565 0.2814895 0 0.0645604 0.1696842 0
          0.3730866 0.1525049 0 0.2235964 0.095416 0
          0.0504222 0.1138183 0 0.1842476 0.0503005 0
          0.1314582 0.0568888 0 0.1229656 0.1693975 0
          0.1687315 0.2394751 0 0.9267413 0.8547158 0
          0.8845918 0.813278 0 0.9574454 0.7678492 0
          0.5510476 0.471734 0 0.9569937 0.596097 0
          0.9151694 0.6769516 0 0.5923029 0.3625767 0
          0.9102653 0.4786257 0 0.8282002 0.6094746 0
          0.4591375 0.315324 0 0.8338368 0.4087703 0
          0.7961499 0.4256845 0 0.4484913 0.3744072 0
          0.8043209 0.3493 0 0.7458368 0.3135426 0
          0.3977794 0.329976 0 0.6955662 0.3293236 0
          0.9538934 0.4711173 0 0.6266994 0.3983006 0
          0.4486782 0.2219617 0 0.9150266 0.4254579 0
          0.5557335 0.3271058 0 0.3143804 0.1735315 0
          0.7452548 0.2566936 0 0.6221587 0.205063 0
          0.480954 0.2594889 0 0.3057777 0.2331142 0
          0.6274905 0.153212 0 0.4929287 0.1063247 0
          0.4125561 0.1854378 0 0.2558143 0.1919075 0
          0.4206352 0.047859 0 0.3319399 0.1172677 0
          0.2368525 0.0464212 0 0.9322219 0.5355532 0
          0.9582292 0.3508596 0 0.8682464 0.3779095 0
          0.9453839 0.2608895 0 0.6203011 0.259444 0
          0.7825541 0.2899229 0 0.8746892 0.1703792 0
          0.5847439 0.2305604 0 0.9384537 0.1643309 0
          0.8250536 0.0720087 0 0.747365 0.1016353 0
          0.7232303 0.047235 0 0.5689264 0.183137 0
          0.5890809 0.1230712 0 0.476828 0.0487394 0
          0.9269107 0.3048544 0 0.8849688 0.2640756 0
          0.956699 0.2163499 0 0.8129254 0.1843442 0
          0.8915777 0.110972 0 0.7723592 0.0476479 0
          0.938881 0.0366068 0 0.2777286 0.7057225 0
          0.7344084 0.8002651 0 0.4961744 0.9067919 0
          0.6858134 0.9575134 0 0.6693521 0.8588921 0
          0.2519711 0.7564293 0 0.5241027 0.6263267 0
          0.439663 0.5064411 0 0.6364254 0.926545 0
          0.5095462 0.7825769 0 0.4877549 0.681565 0
          0.3845327 0.5955538 0 0.3761014 0.5311317 0
          0.8478153 0.7707542 0 0.7353845 0.6588613 0
          0.2085485 0.4765726 0 0.6272806 0.5527301 0
          0.418331 0.6363368 0 0.0967656 0.3149387 0
          0.1621335 0.3833646 0 0.1693816 0.1019661 0
          0.1185498 0.2119705 0 0.8731758 0.5045409 0
          0.7856224 0.6466417 0 0.500701 0.3513306 0
          0.8316989 0.4670728 0 0.8721427 0.4426677 0
          0.3569795 0.2092735 0 0.6691657 0.1850193 0
          0.707784 0.2208531 0 0.6954511 0.0858169 0
          0.6687548 0.0469457 0 0.8482098 0.2233541 0
          0.3113804 0.3986622 0 0.6881753 0.8140596 0
          0.3171748 0.0780144 0 0.4591872 0.9194413 0
          0.3031697 0.8485636 0 0.1247163 0.8369475 0
          0.3541723 0.8444568 0 0.305781 0.7609318 0
          0.6518035 0.7817499 0 0.1948204 0.6816203 0
          0.1130955 0.6913668 0 0.5291415 0.5788708 0
          0.1551278 0.6682094 0 0.545042 0.6865353 0
          0.2820272 0.5722244 0 0.5810806 0.641036 0
          0.4520081 0.7296338 0 0.7714963 0.6983602 0
          0.3144035 0.5252434 0 0.6694169 0.5827942 0
          0.5585938 0.7936552 0 0.2589566 0.3185569 0
          0.6768802 0.5289976 0 0.5969269 0.4834005 0
          0.2102 0.3495776 0 0.5006427 0.4158503 0
          0.9057131 0.7639388 0 0.2076925 0.2868636 0
          0.0587385 0.22808 0 0.104526 0.3641721 0
          0.3560001 0.2746025 0 0.2114004 0.1447623 0
          0.1601137 0.2804605 0 0.5673302 0.4151092 0
          0.421817 0.2758028 0 0.7633488 0.3986315 0
          0.7366982 0.36307 0 0.7026848 0.2761852 0
          0.2699369 0.1370226 0 0.5287349 0.1483013 0
          0.4459804 0.087249 0 0.6572038 0.2937988 0
          0.7812818 0.140218 0 0.9062175 0.215226 0
          0.5519204 0.0962298 0 0.2755587 0.0885335 0
          0.7719738 0.8333803 0 0.6634222 0.2395495 0
          0.3202137 0.7182409 0 0.507734 0.4639352 0
          0.8371288 0.1322931 0
        </DataArray>
      </Points>
      <Cells>
        <DataArray type="Int64" Name="connectivity" format="ascii" RangeMin="0" RangeMax="408">
          177 15 14 171 24 23
          174 17 16 172 22 21
          21 20 18 172 18 17
          20 1 19 20 19 18
          174 172 17 175 164 174
          177 175 15 178 30 29
          180 171 164 29 28 27
          28 2 27 178 27 26
          183 26 25 183 30 178
          183 178 26 184 32 31
          33 14 0 174 22 172
          184 183 180 174 23 22
          363 24 171 174 164 171
          172 21 18 174 171 23
          175 174 16 175 16 15
          177 14 33 180 175 177
          177 33 32 363 171 180
          178 29 27 180 164 175
          184 180 177 363 183 25
          184 30 183 184 31 30
          184 177 32 363 180 183
          363 25 24 190 34 173
          327 179 176 179 36 176
          39 3 38 179 40 37
          361 181 327 182 45 44
          185 166 173 186 185 21
          187 186 23 330 188 165
          40 39 37 39 38 37
          188 24 25 190 166 181
          193 165 188 185 173 20
          215 51 50 330 187 188
          199 45 182 216 200 195
          201 49 48 367 202 201
          202 49 201 215 52 51
          213 54 53 209 58 57
          57 56 55 56 4 55
          209 55 54 213 208 209
          214 59 208 215 195 205
          216 27 2 193 188 25
          406 325 47 182 43 181
          190 35 34 185 20 21
          173 34 1 327 42 41
          176 36 35 325 165 201
          179 37 36 179 41 40
          181 43 42 361 176 190
          182 44 43 362 186 187
          182 181 166 364 166 185
          186 21 22 186 22 23
          365 199 196 364 196 199
          187 23 24 188 187 24
          193 25 26 190 176 35
          190 173 166 368 26 27
          367 165 193 368 193 26
          214 200 60 365 330 325
          364 362 196 199 46 45
          364 199 182 200 2 60
          214 205 200 215 202 195
          325 48 47 202 50 49
          370 202 367 205 195 200
          213 52 205 213 53 52
          208 59 58 209 208 58
          209 57 55 213 205 208
          213 209 54 214 208 205
          214 60 59 215 205 52
          215 50 202 368 216 195
          216 2 200 325 201 48
          365 46 199 327 41 179
          327 181 42 365 187 330
          330 165 325 361 327 176
          361 190 181 362 185 186
          362 187 196 173 1 20
          364 185 362 364 182 166
          365 196 187 406 46 365
          367 201 165 370 367 193
          370 368 195 368 27 216
          370 193 368 370 195 202
          406 47 46 406 365 325
          238 207 219 340 239 256
          198 46 47 242 239 53
          342 198 336 387 55 245
          358 248 167 332 82 81
          343 245 260 379 85 253
          256 253 167 382 344 257
          260 99 98 267 261 91
          264 92 91 264 96 95
          95 94 93 94 6 93
          264 93 92 264 91 261
          261 97 96 346 89 268
          346 267 89 245 4 99
          326 73 72 333 328 39
          340 231 51 358 253 85
          359 326 191 217 41 206
          328 61 3 359 329 168
          220 62 192 194 68 67
          194 66 65 331 197 211
          222 45 46 67 5 66
          194 67 66 203 69 194
          333 39 40 204 192 62
          204 189 191 366 359 168
          227 70 203 227 203 192
          328 62 61 217 206 168
          194 69 68 194 65 64
          210 75 207 373 76 210
          222 46 198 369 78 331
          332 211 212 225 198 47
          211 80 79 337 332 212
          220 194 64 203 70 69
          227 204 191 328 189 204
          335 197 331 218 41 42
          334 44 221 234 75 74
          373 371 331 210 76 75
          369 211 79 244 212 211
          332 81 80 372 223 48
          333 217 189 218 206 41
          366 219 207 220 63 62
          329 189 217 217 40 41
          218 42 43 378 218 334
          373 77 76 219 168 206
          220 192 203 220 64 63
          334 221 238 374 44 45
          374 222 335 342 197 222
          372 48 49 376 248 228
          225 47 48 336 225 223
          227 71 70 227 192 204
          372 50 231 249 228 235
          376 228 337 340 51 52
          234 74 73 366 207 234
          249 83 82 358 235 248
          378 219 206 238 210 207
          242 53 54 379 87 86
          382 256 344 242 54 55
          244 211 197 342 336 244
          343 252 257 245 55 4
          248 235 228 248 231 167
          249 235 83 337 228 249
          390 268 385 386 260 98
          344 239 242 358 85 84
          340 256 167 385 88 87
          382 379 253 387 242 55
          260 245 99 386 97 261
          386 261 346 267 91 90
          264 261 96 264 95 93
          267 90 89 386 252 260
          268 89 88 390 257 252
          334 218 43 326 234 73
          404 227 191 374 335 221
          328 3 39 328 204 62
          329 191 189 329 217 168
          337 336 223 373 78 77
          371 221 335 332 80 211
          332 249 82 333 40 217
          333 189 328 378 334 238
          334 43 44 335 222 197
          371 238 221 336 198 225
          336 212 244 376 337 223
          337 249 332 340 167 231
          340 52 239 342 244 197
          342 222 198 387 257 344
          343 260 252 387 343 257
          344 256 239 346 268 252
          346 261 267 358 84 235
          358 167 253 359 234 326
          359 191 329 220 203 194
          225 48 223 239 52 53
          404 191 326 337 212 336
          366 234 359 366 168 219
          404 72 71 231 50 51
          369 331 211 369 79 78
          234 207 75 235 84 83
          371 335 331 371 210 238
          372 49 50 376 372 231
          373 331 78 373 210 371
          374 221 44 374 45 222
          376 223 372 376 231 248
          378 238 219 378 206 218
          385 87 379 379 86 85
          382 253 256 385 382 257
          385 379 382 385 268 88
          386 346 252 386 98 97
          387 245 343 387 344 242
          390 385 257 390 252 268
          404 71 227 404 326 72
          126 92 93 169 123 8
          287 254 243 281 82 83
          274 246 229 277 247 232
          294 117 258 295 86 87
          224 67 68 224 68 69
          269 226 102 270 226 269
          384 271 226 407 80 81
          274 247 106 290 275 255
          348 339 233 349 278 258
          250 110 109 383 349 255
          254 112 251 284 278 281
          391 287 243 298 288 259
          290 258 116 352 291 262
          294 288 118 388 352 259
          298 262 120 299 291 295
          269 69 70 224 101 100
          338 72 230 226 103 102
          301 122 121 302 263 265
          375 73 74 338 270 71
          230 72 73 375 230 73
          265 125 124 266 126 125
          339 75 236 232 229 230
          348 233 277 377 76 77
          127 126 93 127 93 6
          377 236 76 236 75 76
          341 78 241 237 233 236
          272 79 80 380 341 240
          241 78 79 381 272 243
          391 383 255 381 240 241
          246 105 7 384 246 271
          247 229 232 247 107 106
          250 237 110 277 250 108
          380 251 237 251 112 111
          254 251 240 254 113 112
          383 81 82 290 115 275
          392 278 284 258 117 116
          388 85 86 298 119 288
          396 389 263 262 121 120
          389 89 90 302 123 169
          345 266 265 302 124 123
          266 125 265 266 91 92
          270 269 70 269 224 69
          270 70 71 384 270 338
          271 246 104 271 103 226
          272 241 79 391 272 383
          274 106 105 274 229 247
          391 275 287 275 115 114
          277 108 107 277 233 250
          284 281 83 392 259 288
          383 281 349 284 83 84
          392 284 388 284 84 85
          287 113 254 287 275 114
          294 258 278 288 119 118
          290 116 115 349 290 255
          299 295 87 403 360 301
          294 118 117 392 294 278
          388 295 352 299 87 88
          298 120 119 352 298 259
          396 291 299 299 88 89
          301 262 291 403 301 396
          403 169 360 302 265 124
          100 5 67 384 229 246
          338 71 72 375 232 230
          339 236 233 341 241 240
          380 237 377 345 90 91
          345 265 263 348 277 232
          375 339 348 349 281 278
          349 258 290 352 295 291
          352 262 298 360 122 301
          403 263 302 224 102 101
          269 102 224 271 104 103
          274 105 246 338 230 229
          287 114 113 277 107 247
          250 109 108 246 7 104
          301 121 262 345 91 266
          250 233 237 251 111 237
          360 169 122 169 8 122
          375 74 339 375 348 232
          389 345 263 377 237 236
          377 77 341 224 100 67
          380 240 251 380 377 341
          381 241 272 381 243 240
          383 82 281 407 383 272
          384 338 229 384 226 270
          266 92 126 254 240 243